SPC/E water — SIM-01 equilibrium validation
 1530
    1SOL     OW    1   1.708   1.531   0.162 -0.0032  0.1604 -0.0875
    1SOL    HW1    2   1.712   1.610   0.101  1.8205  0.4039  0.2984
    1SOL    HW2    3   1.701   1.447   0.108 -0.5988  0.4997 -0.5465
    2SOL     OW    4   2.276   0.565   0.086  0.0393 -0.8828 -0.4298
    2SOL    HW1    5   2.363   0.516   0.083  1.0445  0.8548 -1.7093
    2SOL    HW2    6   2.233   0.563  -0.004 -0.4369 -0.3682 -0.2227
    3SOL     OW    7   1.094   0.530   1.037 -0.2577 -0.4751  0.0850
    3SOL    HW1    8   1.139   0.572   1.116 -1.5333 -0.3984  0.7899
    3SOL    HW2    9   1.102   0.591   0.958  1.5049 -0.7935 -0.0198
    4SOL     OW   10   1.618   0.085   1.570  0.2575  0.0911 -0.1523
    4SOL    HW1   11   1.559   0.150   1.617 -1.4668 -1.8066  0.4534
    4SOL    HW2   12   1.697   0.065   1.627  0.4415  1.0933 -0.0384
    5SOL     OW   13   1.659   2.426   0.346 -0.1872 -0.1515 -0.1490
    5SOL    HW1   14   1.714   2.346   0.321  1.8166  0.8465  0.8304
    5SOL    HW2   15   1.663   2.439   0.445  0.6032  1.8599 -0.3952
    6SOL     OW   16   1.896   0.066   2.003 -0.0143 -0.1678 -0.3953
    6SOL    HW1   17   1.843   0.127   1.944 -0.1366  1.1213  0.9844
    6SOL    HW2   18   1.978   0.035   1.955  1.4164  3.1483 -0.3144
    7SOL     OW   19   1.967   1.177   0.360 -0.1708  0.5445 -0.0608
    7SOL    HW1   20   2.062   1.208   0.372 -0.3747  1.0782  0.1716
    7SOL    HW2   21   1.911   1.208   0.437 -0.1889 -1.2128  0.6773
    8SOL     OW   22   1.057   0.975   1.133 -0.2625 -0.0356  0.6827
    8SOL    HW1   23   1.025   1.055   1.184 -3.0163 -0.4677 -0.2065
    8SOL    HW2   24   1.001   0.896   1.155 -0.3689 -0.6704 -1.5734
    9SOL     OW   25   1.388   1.861   1.698 -0.1943 -0.5006  0.0865
    9SOL    HW1   26   1.417   1.954   1.674 -0.9187 -0.0522  0.9215
    9SOL    HW2   27   1.467   1.809   1.731  0.0428  0.0830  0.4448
   10SOL     OW   28   0.540   1.372   0.999  0.3141  0.4714 -0.4421
   10SOL    HW1   29   0.513   1.448   0.940 -0.0078  0.2083 -0.6345
   10SOL    HW2   30   0.632   1.341   0.973  1.6208  2.5306  1.3618
   11SOL     OW   31   0.846   1.918   2.222 -0.2112 -0.2705  0.0013
   11SOL    HW1   32   0.914   1.846   2.233 -0.7735 -0.6874  0.8819
   11SOL    HW2   33   0.883   1.990   2.163  0.0808 -1.5963 -1.5015
   12SOL     OW   34   1.510   2.205   0.554  0.2576  0.0683  0.2518
   12SOL    HW1   35   1.576   2.252   0.612  0.1450 -1.6297  1.8589
   12SOL    HW2   36   1.421   2.251   0.560  0.6589  0.9019  0.0266
   13SOL     OW   37   2.104   0.300   2.400 -0.0825 -0.6050 -0.4800
   13SOL    HW1   38   2.089   0.235   2.325 -0.4237 -2.1719  0.9054
   13SOL    HW2   39   2.198   0.292   2.432  0.2542  0.5145 -1.0967
   14SOL     OW   40   2.294   1.690   1.451  0.3212 -0.2069 -0.0325
   14SOL    HW1   41   2.230   1.622   1.417  0.2103 -1.4506  2.4590
   14SOL    HW2   42   2.379   1.685   1.399 -1.0419  0.5363 -2.4746
   15SOL     OW   43   0.226   1.597   2.460 -0.0917 -0.4117  0.2919
   15SOL    HW1   44   0.194   1.505   2.435  1.5477 -0.8027 -0.5456
   15SOL    HW2   45   0.260   1.643   2.379 -1.4165  1.1971  0.6067
   16SOL     OW   46   0.521   2.087   0.044 -1.0323 -0.4167  0.0121
   16SOL    HW1   47   0.598   2.144   0.071 -2.1636  1.7100 -1.0426
   16SOL    HW2   48   0.453   2.142  -0.004 -2.2978 -2.6384 -0.9158
   17SOL     OW   49   1.510   2.240   2.104  0.4189  0.0700 -0.2988
   17SOL    HW1   50   1.416   2.208   2.087  1.3550 -2.2829 -1.4946
   17SOL    HW2   51   1.529   2.318   2.045 -0.9980  1.0738  0.5091
   18SOL     OW   52   2.195   1.072   0.033  0.2132 -0.4739  1.0553
   18SOL    HW1   53   2.102   1.107   0.040  0.0307 -1.0053  1.3903
   18SOL    HW2   54   2.202   0.985   0.083  0.2301 -1.7295 -1.0114
   19SOL     OW   55   2.436   2.374   1.663  0.2839  0.4920  0.2153
   19SOL    HW1   56   2.451   2.447   1.730  0.1406  0.8809 -0.1724
   19SOL    HW2   57   2.360   2.398   1.603 -0.2237 -0.2957  0.5230
   20SOL     OW   58   0.820   1.000   0.579  0.0150  0.0836  0.1191
   20SOL    HW1   59   0.790   1.062   0.506  3.3297  1.0226 -0.6157
   20SOL    HW2   60   0.830   0.908   0.543  2.7179  0.7509 -1.0739
   21SOL     OW   61   0.884   2.129   1.805 -0.1016  0.6004 -0.3012
   21SOL    HW1   62   0.871   2.042   1.758 -0.2887  0.8084 -0.6369
   21SOL    HW2   63   0.912   2.199   1.739 -1.6405  1.2178 -0.3551
   22SOL     OW   64   0.144   0.898   1.649 -0.2932 -0.4482 -0.0262
   22SOL    HW1   65   0.144   0.877   1.747 -0.5242 -2.0339 -0.3301
   22SOL    HW2   66   0.190   0.985   1.633  0.4330 -0.5356  1.4282
   23SOL     OW   67   0.572   1.175   1.959  0.2686  0.6371  0.0650
   23SOL    HW1   68   0.487   1.215   1.993 -0.0199 -0.1932  0.3506
   23SOL    HW2   69   0.572   1.077   1.978 -0.1918 -0.0183 -2.8378
   24SOL     OW   70   1.982   1.900   1.173  0.4970  0.1136 -0.2625
   24SOL    HW1   71   1.903   1.962   1.175  0.4579  0.0560 -0.0460
   24SOL    HW2   72   2.054   1.935   1.232  0.8823  0.4972 -0.9558
   25SOL     OW   73   0.545   1.835   1.518 -0.2952  0.3387 -0.2864
   25SOL    HW1   74   0.589   1.782   1.590 -0.1891  1.3884  0.4453
   25SOL    HW2   75   0.602   1.834   1.436  1.2680  1.8678  0.7185
   26SOL     OW   76   1.306   1.342   1.952  0.4386 -0.6796 -0.7946
   26SOL    HW1   77   1.341   1.415   1.893  0.4446 -0.3953 -0.4489
   26SOL    HW2   78   1.216   1.368   1.988  0.6792 -0.5960 -0.2378
   27SOL     OW   79   1.476   2.113   0.217 -0.1512  0.0120 -0.0346
   27SOL    HW1   80   1.491   2.054   0.296  1.1675  0.5822  0.1721
   27SOL    HW2   81   1.442   2.202   0.248  2.1528  0.8987  0.1303
   28SOL     OW   82   1.247   2.126   2.093  0.2126 -0.7300  0.9200
   28SOL    HW1   83   1.205   2.036   2.078  1.8746 -1.3031 -0.6998
   28SOL    HW2   84   1.216   2.190   2.023  0.9977 -0.7858  0.5149
   29SOL     OW   85   0.899   1.448   0.597 -0.3302 -0.1332 -1.0819
   29SOL    HW1   86   0.998   1.445   0.583 -0.2763  1.9781 -1.4268
   29SOL    HW2   87   0.856   1.491   0.519 -1.0890  2.5040  0.6697
   30SOL     OW   88   1.009   1.572   1.840 -0.1640 -0.2176 -0.4869
   30SOL    HW1   89   1.088   1.633   1.850 -1.1204  0.8764  0.5313
   30SOL    HW2   90   1.008   1.506   1.915  0.8205 -1.4983 -1.5390
   31SOL     OW   91   2.080   2.360   1.916 -0.2787  0.4192  0.2210
   31SOL    HW1   92   2.071   2.314   1.828 -0.7123 -0.6179  0.7836
   31SOL    HW2   93   2.172   2.344   1.953 -0.0611  0.9451 -0.0857
   32SOL     OW   94   0.225   0.376   1.148 -0.3546 -0.0122  0.2391
   32SOL    HW1   95   0.226   0.412   1.055 -1.1099 -0.9906 -0.1711
   32SOL    HW2   96   0.252   0.280   1.147 -0.6324 -0.1062  0.9935
   33SOL     OW   97   0.136   0.765   0.664 -0.0768 -0.3032  0.0137
   33SOL    HW1   98   0.177   0.727   0.581  1.2841  3.7811 -1.4548
   33SOL    HW2   99   0.037   0.754   0.660  0.1405 -2.3034 -0.9407
   34SOL     OW  100   2.042   0.867   2.124  0.0598  0.5770  0.5039
   34SOL    HW1  101   2.087   0.938   2.179  0.3468  0.4712  0.4069
   34SOL    HW2  102   2.105   0.792   2.109  0.3724  1.1035 -0.9396
   35SOL     OW  103   1.983   0.645   0.664  0.0532  0.8957  0.3524
   35SOL    HW1  104   2.014   0.737   0.691 -0.3407  1.4117 -0.8743
   35SOL    HW2  105   1.947   0.648   0.571  0.4271 -0.6095  0.1349
   36SOL     OW  106   0.239   1.857   0.602 -0.6493 -0.0252  0.1304
   36SOL    HW1  107   0.225   1.834   0.699 -2.6993 -1.6611 -0.4767
   36SOL    HW2  108   0.173   1.926   0.574 -0.2280  0.2524 -0.1955
   37SOL     OW  109   0.837   0.733   0.477  0.2053  0.6287  0.6998
   37SOL    HW1  110   0.737   0.722   0.472  0.4976 -2.2445 -1.4641
   37SOL    HW2  111   0.877   0.649   0.514  1.8583  1.7413  1.5210
   38SOL     OW  112   0.027   0.968   0.085 -0.0288  0.2582 -0.2091
   38SOL    HW1  113  -0.014   0.930   0.002  0.4488  0.5573 -0.5911
   38SOL    HW2  114   0.007   0.909   0.163  0.6755 -0.7731 -0.7784
   39SOL     OW  115   0.222   2.357   1.042  0.3100 -0.1399  0.2862
   39SOL    HW1  116   0.211   2.454   1.019  0.0222  0.1753  1.6714
   39SOL    HW2  117   0.171   2.337   1.126 -1.8467 -2.0940 -1.3563
   40SOL     OW  118   0.782   0.390   2.293 -0.6102  0.0125  0.1872
   40SOL    HW1  119   0.868   0.433   2.266 -0.7999  1.0022  1.1269
   40SOL    HW2  120   0.706   0.449   2.268 -0.9225 -0.1310  0.7949
   41SOL     OW  121   0.494   1.131   0.475 -0.2108 -0.1303 -0.2027
   41SOL    HW1  122   0.567   1.167   0.417 -1.6791  1.2695 -1.3110
   41SOL    HW2  123   0.525   1.126   0.570  0.7296  2.3544 -0.3019
   42SOL     OW  124   1.049   0.067   1.264  0.1773  0.2716 -0.2819
   42SOL    HW1  125   1.118   0.140   1.265 -0.0721  0.5100 -0.1742
   42SOL    HW2  126   1.017   0.053   1.170  1.2523 -0.6861 -0.5185
   43SOL     OW  127   2.209   1.446   0.680  0.7897  0.0255  0.3324
   43SOL    HW1  128   2.162   1.429   0.766 -0.1389 -0.9628 -0.3409
   43SOL    HW2  129   2.258   1.363   0.652 -0.3850 -0.2654 -0.9657
   44SOL     OW  130   2.043   2.198   2.220  0.3103 -0.1563 -0.1436
   44SOL    HW1  131   1.953   2.238   2.202  1.3859  2.3439 -0.2952
   44SOL    HW2  132   2.069   2.140   2.143 -1.5648 -1.8133  0.3696
   45SOL     OW  133   1.549   0.012   1.969  0.6247 -0.2261  0.1305
   45SOL    HW1  134   1.455   0.044   1.976  0.3650 -1.1996  1.8172
   45SOL    HW2  135   1.609   0.087   1.941 -0.0928  1.5088  2.8687
   46SOL     OW  136   0.494   0.245   1.638 -0.4145 -0.0547  0.0862
   46SOL    HW1  137   0.556   0.261   1.714 -0.9714 -1.5143  0.8860
   46SOL    HW2  138   0.426   0.319   1.634 -0.6605 -0.1970  1.3080
   47SOL     OW  139   0.982   1.703   1.477 -0.4551  0.2649  0.9946
   47SOL    HW1  140   1.036   1.672   1.398  0.1901  0.3337  1.3986
   47SOL    HW2  141   0.951   1.623   1.529 -3.1463  0.0625 -0.7541
   48SOL     OW  142   2.440   0.446   0.674 -0.2010 -0.0478 -0.4221
   48SOL    HW1  143   2.350   0.473   0.709  0.5611  1.6903  0.3277
   48SOL    HW2  144   2.484   0.383   0.738  0.2625  1.3597  0.6997
   49SOL     OW  145   0.843   1.074   1.583 -0.2931  0.5851  0.1659
   49SOL    HW1  146   0.841   1.001   1.515 -0.8512 -0.2280  1.0390
   49SOL    HW2  147   0.913   1.055   1.651 -2.3131 -0.6702  2.0155
   50SOL     OW  148   2.379   2.085   0.261 -0.3355  0.6645  0.0072
   50SOL    HW1  149   2.441   2.095   0.183 -0.6324 -0.2316 -0.3605
   50SOL    HW2  150   2.332   1.997   0.254  0.9476 -0.2657  2.1640
   51SOL     OW  151   1.179   0.726   0.502 -0.2516  0.0947  0.3719
   51SOL    HW1  152   1.173   0.817   0.460 -0.7754 -1.4976 -3.4148
   51SOL    HW2  153   1.089   0.701   0.538 -0.5607  0.4693 -0.1144
   52SOL     OW  154   0.591   1.820   1.170 -0.1671 -0.5699  0.2467
   52SOL    HW1  155   0.660   1.849   1.236  1.1551 -0.5950 -1.0774
   52SOL    HW2  156   0.572   1.722   1.182  0.6770 -0.7631  0.0761
   53SOL     OW  157   0.319   1.716   0.229  0.0043 -0.0836  0.1484
   53SOL    HW1  158   0.336   1.638   0.288 -3.3546 -0.5096  0.7202
   53SOL    HW2  159   0.307   1.684   0.135 -2.1715 -0.4508  0.5056
   54SOL     OW  160   1.200   1.109   0.729  0.0649 -0.5545 -0.2299
   54SOL    HW1  161   1.221   1.178   0.798  1.4568  0.0747 -1.2156
   54SOL    HW2  162   1.118   1.058   0.755  0.5254 -0.3127  1.8351
   55SOL     OW  163   1.540   1.939   0.924  0.7881  0.4738 -0.3178
   55SOL    HW1  164   1.496   1.860   0.966  3.1937 -0.3775  0.7228
   55SOL    HW2  165   1.578   1.913   0.835  3.1513 -0.1233  0.7997
   56SOL     OW  166   0.978   1.525   1.177 -0.3784  0.5872 -0.0399
   56SOL    HW1  167   0.999   1.428   1.162 -0.0340  0.9822 -2.3440
   56SOL    HW2  168   1.061   1.573   1.205 -0.2387  0.4933 -0.2955
   57SOL     OW  169   0.390   0.459   0.038  0.1088 -0.6588 -0.7755
   57SOL    HW1  170   0.346   0.439   0.125  0.3817 -0.2699 -0.5493
   57SOL    HW2  171   0.461   0.390   0.020  0.8717 -0.0620 -0.1179
   58SOL     OW  172   1.554   0.393   1.999 -0.0382  0.2970  0.1346
   58SOL    HW1  173   1.463   0.427   1.974  0.7071  1.8938 -0.5143
   58SOL    HW2  174   1.614   0.470   2.022  1.4602 -0.6528 -0.4455
   59SOL     OW  175   2.435   1.640   2.215  0.4208 -0.1060  0.0695
   59SOL    HW1  176   2.488   1.657   2.132 -1.8027  1.8987 -1.0494
   59SOL    HW2  177   2.464   1.704   2.286 -0.0590  0.5723 -0.3370
   60SOL     OW  178   1.414   0.985   2.458 -0.3638 -0.0350 -0.2332
   60SOL    HW1  179   1.471   1.044   2.402  1.6188 -1.1027  0.5455
   60SOL    HW2  180   1.446   0.890   2.449 -2.6006 -0.8340 -0.4275
   61SOL     OW  181   0.737   0.003   2.079  0.2856 -0.4933 -0.6959
   61SOL    HW1  182   0.697  -0.088   2.088 -2.0968  0.3902 -1.5794
   61SOL    HW2  183   0.745   0.044   2.170  0.0459 -1.0606 -0.4122
   62SOL     OW  184   1.452   1.465   1.130 -0.0785 -0.7221 -0.2822
   62SOL    HW1  185   1.506   1.393   1.085  1.9243 -2.1231  3.8827
   62SOL    HW2  186   1.369   1.425   1.170 -1.9683  0.5499 -2.6490
   63SOL     OW  187   0.067   2.069   0.532  0.0720  0.0776 -0.2833
   63SOL    HW1  188   0.026   2.106   0.448  0.3653 -0.0202 -0.4729
   63SOL    HW2  189   0.016   2.102   0.611 -0.7569 -0.5497 -0.5489
   64SOL     OW  190   1.532   2.118   1.684  0.0408 -0.1033  0.2798
   64SOL    HW1  191   1.612   2.137   1.741 -0.7717 -1.9659  2.1475
   64SOL    HW2  192   1.461   2.185   1.703  0.3345  0.2106  0.2824
   65SOL     OW  193   1.815   0.266   0.389  0.0382  0.1801 -0.1727
   65SOL    HW1  194   1.774   0.236   0.475  0.0064 -0.5732 -0.4437
   65SOL    HW2  195   1.763   0.228   0.312  0.1352  0.7486 -0.5277
   66SOL     OW  196   1.399   0.129   0.983  0.0727  0.5962 -0.2896
   66SOL    HW1  197   1.483   0.176   1.011 -0.3235  0.7640  0.6463
   66SOL    HW2  198   1.338   0.193   0.937  0.4582  0.4687 -0.9937
   67SOL     OW  199   2.017   0.543   1.871 -0.2247 -0.2036 -0.5290
   67SOL    HW1  200   1.986   0.464   1.818 -1.9151 -1.0888  1.6233
   67SOL    HW2  201   2.080   0.597   1.816 -0.8070 -1.7795 -2.9064
   68SOL     OW  202   1.566   2.170   1.042  0.2074 -0.1829 -0.5984
   68SOL    HW1  203   1.575   2.082   0.995  2.7429  0.1983 -0.9512
   68SOL    HW2  204   1.609   2.163   1.132  0.2533  0.6352 -0.5569
   69SOL     OW  205   0.649   0.521   1.668  0.3377  0.1567 -0.0247
   69SOL    HW1  206   0.571   0.576   1.638  0.4024  1.1922  1.5651
   69SOL    HW2  207   0.731   0.550   1.620 -0.3019 -1.5092 -2.3504
   70SOL     OW  208   0.438   1.255   1.212 -0.3743  0.0354  0.0902
   70SOL    HW1  209   0.371   1.193   1.173  0.1930 -0.2764 -0.4009
   70SOL    HW2  210   0.482   1.308   1.139  1.8937 -1.7323  0.0516
   71SOL     OW  211   2.056   0.474   0.270  0.3866 -0.4413  0.3783
   71SOL    HW1  212   2.001   0.395   0.242  0.6073 -0.2881 -0.5215
   71SOL    HW2  213   2.125   0.493   0.200  1.4825 -0.5239  1.4049
   72SOL     OW  214   1.353   1.635   1.507  0.7081  0.2310 -0.1517
   72SOL    HW1  215   1.439   1.623   1.458 -0.6901  1.7263 -3.2385
   72SOL    HW2  216   1.361   1.713   1.569  1.2263  1.2483 -1.4404
   73SOL     OW  217   1.158   1.907   1.581  0.8900  0.3059  0.6523
   73SOL    HW1  218   1.247   1.889   1.623  0.7348 -1.0647  0.4253
   73SOL    HW2  219   1.122   1.823   1.541 -0.2853  0.9551  0.2967
   74SOL     OW  220   1.607   1.316   0.995 -0.5964 -0.1154 -0.0585
   74SOL    HW1  221   1.671   1.392   1.011  0.8631 -1.7400  2.4284
   74SOL    HW2  222   1.636   1.265   0.914 -0.9597  1.3106 -1.1175
   75SOL     OW  223   2.093   0.126   2.196 -0.3671  0.6265 -0.7124
   75SOL    HW1  224   2.040   0.085   2.121  0.3940  1.4529 -1.7325
   75SOL    HW2  225   2.130   0.054   2.254 -0.2102 -0.0773 -1.6569
   76SOL     OW  226   2.076   0.900   0.393  0.0849 -0.1640  0.1745
   76SOL    HW1  227   2.004   0.832   0.408 -0.5692  0.0754 -1.6111
   76SOL    HW2  228   2.035   0.991   0.387  0.6810  0.1168  0.3665
   77SOL     OW  229   0.307   1.991   2.158 -0.2795  0.3483 -0.1673
   77SOL    HW1  230   0.404   1.967   2.160 -0.3727 -0.0012  0.3570
   77SOL    HW2  231   0.288   2.049   2.079  0.7529  2.0773  0.8042
   78SOL     OW  232   0.821   0.122   0.864  0.0565 -0.0720  0.1845
   78SOL    HW1  233   0.854   0.045   0.919  0.1320 -0.3092 -0.1865
   78SOL    HW2  234   0.738   0.095   0.816 -0.8613  0.6203  1.3493
   79SOL     OW  235   1.996   0.038   0.596  0.5017 -0.3246  0.0253
   79SOL    HW1  236   1.963  -0.020   0.522  1.8108  1.5495 -2.2149
   79SOL    HW2  237   2.088   0.009   0.623  0.6425 -0.0971 -0.1981
   80SOL     OW  238   1.500   1.954   0.462 -0.3518  0.4849  0.0254
   80SOL    HW1  239   1.405   1.922   0.461 -0.1821 -0.0340  0.1027
   80SOL    HW2  240   1.504   2.047   0.497 -0.6352 -0.1583  1.8463
   81SOL     OW  241   2.367   0.002   0.387 -0.3924  0.0143  0.7655
   81SOL    HW1  242   2.365   0.101   0.373  0.2273  0.3574  2.8031
   81SOL    HW2  243   2.289  -0.025   0.444 -0.1782 -0.5804  0.7836
   82SOL     OW  244   0.296   0.978   0.119  0.8090 -0.0708 -0.7284
   82SOL    HW1  245   0.203   0.971   0.083  0.8994 -1.6290 -0.7402
   82SOL    HW2  246   0.320   1.074   0.130 -0.7615  0.3652 -0.8059
   83SOL     OW  247   0.486   0.488   0.503  0.2934 -0.1881  0.0086
   83SOL    HW1  248   0.390   0.485   0.532  0.2018 -0.4566 -0.3074
   83SOL    HW2  249   0.517   0.395   0.482  0.5523 -0.0754 -0.1139
   84SOL     OW  250   0.748   0.407   1.886 -0.1707  0.4922  0.1806
   84SOL    HW1  251   0.697   0.322   1.892 -1.1547  1.1171  1.0766
   84SOL    HW2  252   0.705   0.467   1.818 -0.1609  0.7066  0.3613
   85SOL     OW  253   1.351   0.181   1.379  0.2264  0.0214  0.2372
   85SOL    HW1  254   1.298   0.266   1.368  0.6196  0.2183 -0.1315
   85SOL    HW2  255   1.288   0.103   1.377 -0.0458  0.2471 -0.2971
   86SOL     OW  256   2.161   1.766   0.461  0.0496  0.3645  0.4005
   86SOL    HW1  257   2.066   1.792   0.447 -0.0027  1.2052  2.1421
   86SOL    HW2  258   2.215   1.790   0.380 -1.0260  0.7954 -0.1995
   87SOL     OW  259   1.624   1.434   1.344 -0.3885 -0.1689  0.0158
   87SOL    HW1  260   1.628   1.335   1.338  0.1479 -0.0928 -0.9815
   87SOL    HW2  261   1.570   1.470   1.268  0.9522  0.4160 -0.6775
   88SOL     OW  262   2.075   1.320   2.188  0.5604  0.6601 -0.6108
   88SOL    HW1  263   2.010   1.321   2.113  1.6815  1.3183 -1.6154
   88SOL    HW2  264   2.166   1.346   2.154  1.0087  1.4145  1.0656
   89SOL     OW  265   0.685   1.823   1.885 -0.3989  0.1763  0.0595
   89SOL    HW1  266   0.776   1.851   1.853 -0.1764 -0.9713 -0.3522
   89SOL    HW2  267   0.688   1.728   1.916 -1.1439  0.5586  1.3951
   90SOL     OW  268   1.296   1.622   0.678 -0.0262  0.2680  0.1832
   90SOL    HW1  269   1.256   1.666   0.759 -0.9522  0.3899 -0.3297
   90SOL    HW2  270   1.298   1.687   0.602 -2.0656 -0.6981 -0.7971
   91SOL     OW  271   1.160   1.438   0.513 -0.0106 -0.2625  0.0277
   91SOL    HW1  272   1.213   1.463   0.594  1.6553 -2.5287 -0.2988
   91SOL    HW2  273   1.219   1.395   0.445 -1.9720 -1.5239 -0.9866
   92SOL     OW  274   0.290   1.729   2.217  1.2204 -0.2351  0.1536
   92SOL    HW1  275   0.295   1.829   2.218 -1.4980 -0.0139  0.8010
   92SOL    HW2  276   0.224   1.700   2.147 -1.6501 -1.1856  2.9730
   93SOL     OW  277   1.913   0.023   1.235  0.0569 -0.5309 -0.1104
   93SOL    HW1  278   1.816   0.047   1.246  0.4570  0.2896  2.3990
   93SOL    HW2  279   1.965   0.058   1.313  2.0286 -2.9156 -0.2192
   94SOL     OW  280   1.857   1.570   1.385 -0.0970  0.3133  0.4489
   94SOL    HW1  281   1.826   1.629   1.460 -0.8975 -0.6490  0.8986
   94SOL    HW2  282   1.780   1.518   1.349  0.4937 -0.0765 -0.2965
   95SOL     OW  283   1.646   1.251   0.706  0.1426  0.1589 -0.4041
   95SOL    HW1  284   1.581   1.182   0.675 -1.1164  1.0574  0.1566
   95SOL    HW2  285   1.609   1.342   0.687  0.8323  0.6975  0.7378
   96SOL     OW  286   0.964   2.309   1.624  0.3043 -0.6741 -0.5452
   96SOL    HW1  287   0.925   2.309   1.532 -0.7211  0.9809 -0.1604
   96SOL    HW2  288   0.956   2.401   1.663 -1.0423 -1.7410  1.9124
   97SOL     OW  289   0.495   0.245   0.950  0.3137  0.2306 -0.2681
   97SOL    HW1  290   0.529   0.240   1.043  2.0634 -0.2777 -0.8868
   97SOL    HW2  291   0.542   0.320   0.901 -0.4333  0.3685 -0.7930
   98SOL     OW  292   0.580   1.428   2.404  0.5337 -0.3883  0.0989
   98SOL    HW1  293   0.587   1.330   2.387 -1.7001 -0.6757  0.5674
   98SOL    HW2  294   0.544   1.444   2.496  0.0893  0.8406 -0.2606
   99SOL     OW  295   1.297   1.088   1.843 -0.3558 -0.2582  0.3776
   99SOL    HW1  296   1.394   1.069   1.826 -0.8071 -0.3894 -2.4454
   99SOL    HW2  297   1.288   1.182   1.876  0.6733  0.0486 -0.1612
  100SOL     OW  298   0.781   0.873   1.396 -0.4023  0.0975 -0.1464
  100SOL    HW1  299   0.819   0.835   1.312 -1.0964  0.4817 -0.6435
  100SOL    HW2  300   0.704   0.933   1.374 -2.7002 -2.2470  0.8980
  101SOL     OW  301   1.753   1.342   1.732  0.1607  0.3120 -0.6015
  101SOL    HW1  302   1.654   1.333   1.731  0.2388 -0.7371 -0.3011
  101SOL    HW2  303   1.794   1.277   1.668  0.7608 -1.3027  1.3243
  102SOL     OW  304   0.309   0.129   2.117 -0.6557 -0.0987  0.0908
  102SOL    HW1  305   0.263   0.217   2.113  2.5643  1.6927 -1.8827
  102SOL    HW2  306   0.395   0.138   2.167  0.5506 -1.6409 -1.5571
  103SOL     OW  307   1.301   2.094   0.825  0.1342 -0.0856 -0.5905
  103SOL    HW1  308   1.375   2.085   0.892 -0.5220 -0.9770  0.0410
  103SOL    HW2  309   1.338   2.130   0.739  0.7469  2.8011  0.7315
  104SOL     OW  310   0.371   0.918   0.784 -0.0405  0.6578 -0.0545
  104SOL    HW1  311   0.425   1.002   0.786 -0.7770  1.1611 -0.9099
  104SOL    HW2  312   0.294   0.928   0.722 -0.6752 -0.3378  0.5308
  105SOL     OW  313   1.016   1.398   2.040  0.1979  0.0874 -0.2668
  105SOL    HW1  314   0.940   1.341   2.009  0.8760 -0.7717 -0.4191
  105SOL    HW2  315   1.041   1.372   2.133  1.1335 -0.5580 -0.6798
  106SOL     OW  316   0.697   0.884   0.790  0.7809 -0.3044  0.2628
  106SOL    HW1  317   0.710   0.920   0.698  1.2202 -0.1546  0.3792
  106SOL    HW2  318   0.733   0.791   0.794  2.4135  0.3044  0.7295
  107SOL     OW  319   0.190   0.354   2.058  0.2757 -0.1681  0.5660
  107SOL    HW1  320   0.093   0.333   2.069  0.8240 -2.9232  0.7541
  107SOL    HW2  321   0.202   0.453   2.053 -2.6941  0.2337 -0.9987
  108SOL     OW  322   2.377   0.903   2.075 -0.5123  0.4373 -0.3574
  108SOL    HW1  323   2.469   0.924   2.041 -0.3524  0.4312  0.0714
  108SOL    HW2  324   2.311   0.964   2.032 -0.2397  0.8095 -0.2523
  109SOL     OW  325   2.166   1.058   1.871  0.8214 -0.1858 -0.3973
  109SOL    HW1  326   2.069   1.043   1.890  0.1846  0.6096 -2.7270
  109SOL    HW2  327   2.202   1.129   1.932 -0.3910  0.4060 -0.3616
  110SOL     OW  328   0.902   1.871   1.715  0.1595 -0.0862 -0.2098
  110SOL    HW1  329   0.858   1.786   1.687 -1.2269  1.1972 -2.1494
  110SOL    HW2  330   0.999   1.869   1.690 -0.3579 -0.2432 -2.3491
  111SOL     OW  331   1.155   2.166   1.471  0.0296  0.4569  0.3763
  111SOL    HW1  332   1.158   2.071   1.500 -0.4074  0.7569  1.4467
  111SOL    HW2  333   1.079   2.213   1.515  1.7958  1.9799  2.0061
  112SOL     OW  334   0.076   0.971   0.469  0.5560 -0.0825 -0.2894
  112SOL    HW1  335   0.154   1.026   0.499  0.5456  0.4580 -1.2149
  112SOL    HW2  336   0.106   0.878   0.448  0.9293  0.0898 -0.5193
  113SOL     OW  337   0.830   2.167   2.071  0.5907 -0.1607  0.5806
  113SOL    HW1  338   0.870   2.162   1.980 -0.0299  0.4886  0.2573
  113SOL    HW2  339   0.731   2.183   2.063  0.5762  0.2010  1.3618
  114SOL     OW  340   1.760   2.101   0.053  0.8662 -0.4938 -0.7361
  114SOL    HW1  341   1.796   2.050  -0.025  0.4703 -0.7876 -0.7318
  114SOL    HW2  342   1.660   2.105   0.047  0.5236 -3.1026  1.2695
  115SOL     OW  343   1.903   1.265   0.656  0.2373 -0.0001 -0.3387
  115SOL    HW1  344   1.812   1.272   0.698  1.3453  0.3753  2.2403
  115SOL    HW2  345   1.931   1.355   0.621 -0.2774 -0.0692 -0.9400
  116SOL     OW  346   0.187   1.489   1.839  0.1278  0.0544  0.1272
  116SOL    HW1  347   0.101   1.448   1.807  0.4685 -0.5629 -0.0059
  116SOL    HW2  348   0.252   1.492   1.764  0.3561  0.1604  0.3296
  117SOL     OW  349   0.833   1.702   1.033 -0.3898  0.0460  0.3477
  117SOL    HW1  350   0.734   1.699   1.027 -0.2621 -1.5353 -2.2637
  117SOL    HW2  351   0.864   1.636   1.102 -1.1034 -0.9007 -0.2088
  118SOL     OW  352   0.367   1.831   1.843  0.3373 -0.9820  0.2324
  118SOL    HW1  353   0.466   1.841   1.857  0.2712 -1.1766  0.8956
  118SOL    HW2  354   0.332   1.760   1.904 -0.8024  1.5352  2.7527
  119SOL     OW  355   1.842   0.017   1.706  0.1547  0.0642 -0.2167
  119SOL    HW1  356   1.817  -0.056   1.770 -0.4738 -0.3847 -0.9463
  119SOL    HW2  357   1.896  -0.022   1.631  0.3618  0.4677 -0.2788
  120SOL     OW  358   0.742   1.660   0.162  0.0975 -0.1862 -0.0169
  120SOL    HW1  359   0.730   1.751   0.122 -1.3015 -0.4312 -0.2054
  120SOL    HW2  360   0.781   1.598   0.094 -2.0825 -0.5493 -1.0186
  121SOL     OW  361   0.327   2.370   0.065  0.0926  0.2042  0.1849
  121SOL    HW1  362   0.242   2.356   0.117 -0.2545  1.1509 -0.1045
  121SOL    HW2  363   0.367   2.458   0.090  0.4498  0.2216 -0.4267
  122SOL     OW  364   1.217   0.925   2.073 -0.5191  0.1385  0.3839
  122SOL    HW1  365   1.228   1.011   2.124 -0.5911  0.1120  0.4437
  122SOL    HW2  366   1.222   0.945   1.975 -0.3289  0.1814  0.4019
  123SOL     OW  367   1.836   0.860   1.690 -0.0443  0.0864  0.4847
  123SOL    HW1  368   1.799   0.771   1.718 -0.7502  0.1878 -0.0843
  123SOL    HW2  369   1.907   0.847   1.622 -0.4892 -0.0277  0.0360
  124SOL     OW  370   1.745   0.347   2.313  0.2366  0.0191  0.2065
  124SOL    HW1  371   1.790   0.271   2.266 -1.8593 -0.3781 -1.2568
  124SOL    HW2  372   1.647   0.331   2.318 -0.2497  2.4818  0.0768
  125SOL     OW  373   1.277   0.521   1.943  0.1692  0.1757 -0.4645
  125SOL    HW1  374   1.321   0.586   2.005 -0.2093 -0.8961  0.9558
  125SOL    HW2  375   1.178   0.520   1.960 -0.0916  0.6326 -1.8250
  126SOL     OW  376   2.300   2.419   2.369 -0.2951 -0.2784 -0.1841
  126SOL    HW1  377   2.266   2.397   2.460 -0.0330 -0.9041 -0.2289
  126SOL    HW2  378   2.274   2.346   2.305 -0.6756  0.2691 -0.6546
  127SOL     OW  379   0.254   0.672   0.150 -0.3494 -0.2837  0.1310
  127SOL    HW1  380   0.289   0.766   0.143 -1.3857  0.1088  0.0811
  127SOL    HW2  381   0.298   0.616   0.080 -0.6350  0.4664 -0.6723
  128SOL     OW  382   0.128   2.382   2.188 -0.0153  0.1998 -0.0448
  128SOL    HW1  383   0.189   2.459   2.171  0.1548  0.0878  0.0529
  128SOL    HW2  384   0.038   2.400   2.146  0.0930  0.3517 -0.2123
  129SOL     OW  385   1.688   1.517   2.104  0.0662  0.0823  0.0286
  129SOL    HW1  386   1.727   1.563   2.024 -0.7294  1.9242  0.6483
  129SOL    HW2  387   1.756   1.515   2.177 -0.3189  1.5925  0.4671
  130SOL     OW  388   0.974   0.815   0.220 -0.1031 -0.1854 -0.4895
  130SOL    HW1  389   1.035   0.878   0.267  2.1294 -1.2823 -1.7530
  130SOL    HW2  390   0.905   0.782   0.284  0.6742  1.0335  1.0447
  131SOL     OW  391   1.931   2.218   1.281 -0.1956  0.1900  0.1226
  131SOL    HW1  392   2.015   2.171   1.253 -1.3580 -1.9064 -0.0254
  131SOL    HW2  393   1.933   2.312   1.247  1.2903 -0.3443 -1.4283
  132SOL     OW  394   2.322   1.311   0.004  0.6904 -0.2996  0.5466
  132SOL    HW1  395   2.315   1.362   0.090 -0.8780 -1.7319  1.3412
  132SOL    HW2  396   2.265   1.229   0.010 -0.7572  0.3753 -2.4720
  133SOL     OW  397   0.532   0.685   1.105 -0.3908  0.6582  0.4234
  133SOL    HW1  398   0.439   0.722   1.109 -1.2841 -1.1889 -1.4968
  133SOL    HW2  399   0.530   0.593   1.066  2.1942  0.2478  1.0532
  134SOL     OW  400   1.243   2.393   1.052 -0.3989 -0.3017  0.4416
  134SOL    HW1  401   1.306   2.465   1.025 -0.4633 -0.7175 -0.8657
  134SOL    HW2  402   1.294   2.314   1.086 -0.3294  0.3405  1.8954
  135SOL     OW  403   1.904   0.264   0.077  0.0988  0.2537 -0.0930
  135SOL    HW1  404   1.829   0.277   0.013  0.2075  0.9930 -0.0848
  135SOL    HW2  405   1.991   0.278   0.029  0.2630 -0.9712 -0.1931
  136SOL     OW  406   0.154   1.708   1.995  0.4920  0.5078  0.0427
  136SOL    HW1  407   0.103   1.761   1.927  0.9939  2.2100  0.9292
  136SOL    HW2  408   0.181   1.620   1.956  1.4880  1.7621 -2.2680
  137SOL     OW  409   2.369   0.983   0.675  0.2350 -0.0291 -0.1527
  137SOL    HW1  410   2.437   0.953   0.609  0.3850 -1.6289  0.6872
  137SOL    HW2  411   2.389   1.077   0.703 -0.5631  1.2026 -3.2718
  138SOL     OW  412   2.201   1.338   0.930 -0.2007 -0.2706 -0.2256
  138SOL    HW1  413   2.136   1.264   0.913  1.4392 -2.0495  0.7726
  138SOL    HW2  414   2.286   1.320   0.881 -0.4956  2.1952 -1.8046
  139SOL     OW  415   2.119   1.503   1.318 -0.6604  0.6789 -0.5123
  139SOL    HW1  416   2.024   1.520   1.345 -0.1463  0.7794  1.3710
  139SOL    HW2  417   2.128   1.407   1.290 -1.3376  0.6899 -0.7863
  140SOL     OW  418   1.798   1.109   1.596 -0.5894  0.9034 -0.0939
  140SOL    HW1  419   1.809   1.025   1.649 -1.7762  0.1679 -0.9489
  140SOL    HW2  420   1.880   1.125   1.542 -0.8012 -0.4000 -0.8522
  141SOL     OW  421   1.490   0.312   2.295 -0.2557 -0.0658  0.2856
  141SOL    HW1  422   1.424   0.250   2.337  0.4266  0.1906  1.7950
  141SOL    HW2  423   1.461   0.333   2.201 -1.2109 -1.5621  0.2180
  142SOL     OW  424   0.286   0.363   0.269 -0.2365 -0.6303  0.3336
  142SOL    HW1  425   0.358   0.305   0.307  0.0776 -0.8014 -0.5160
  142SOL    HW2  426   0.200   0.346   0.318 -0.0308 -1.4362  0.4221
  143SOL     OW  427   1.595   1.713   2.393 -0.1417 -0.2529  0.1323
  143SOL    HW1  428   1.642   1.649   2.331 -1.0280 -1.9243  1.0924
  143SOL    HW2  429   1.663   1.755   2.454  0.3035 -1.6797  0.6738
  144SOL     OW  430   2.148   0.283   1.702 -0.1278  0.0418  0.2162
  144SOL    HW1  431   2.142   0.305   1.799  2.2787 -0.5204  0.5530
  144SOL    HW2  432   2.194   0.194   1.691  1.1598  0.8593 -1.4659
  145SOL     OW  433   0.631   0.351   0.101 -0.2884 -0.0154  0.0431
  145SOL    HW1  434   0.694   0.336   0.025 -0.5980  0.1182 -0.2429
  145SOL    HW2  435   0.683   0.354   0.187  0.0560 -0.2223 -0.1541
  146SOL     OW  436   2.360   0.217   2.392 -0.7124 -0.4909 -0.1450
  146SOL    HW1  437   2.348   0.125   2.353 -0.5945 -0.1478 -1.0134
  146SOL    HW2  438   2.433   0.265   2.343 -0.9891  0.1798  0.0847
  147SOL     OW  439   0.029   1.654   0.186 -0.0961 -0.3082 -0.5059
  147SOL    HW1  440   0.071   1.678   0.273 -1.0670  0.3947 -0.2108
  147SOL    HW2  441   0.100   1.633   0.119  0.6694 -1.3179  0.5641
  148SOL     OW  442   1.607   1.129   2.308 -0.3209 -0.2178  0.1526
  148SOL    HW1  443   1.681   1.063   2.294 -0.0062  0.2133 -0.2402
  148SOL    HW2  444   1.573   1.160   2.219  0.7035  1.4357  0.2898
  149SOL     OW  445   0.212   0.429   0.885 -0.1457 -0.0579  0.1899
  149SOL    HW1  446   0.274   0.461   0.814 -0.7547 -0.3482 -0.4847
  149SOL    HW2  447   0.133   0.383   0.843 -1.1830  0.9247  0.9870
  150SOL     OW  448   0.503   1.560   1.198 -0.2636 -0.2259 -0.1556
  150SOL    HW1  449   0.581   1.542   1.259  1.3225  0.4783 -1.8848
  150SOL    HW2  450   0.501   1.491   1.126 -0.5929  0.3785 -0.7307
  151SOL     OW  451   0.004   2.250   0.753  0.1297 -0.2862 -0.3315
  151SOL    HW1  452   0.007   2.325   0.686  1.2796 -0.8292 -0.9343
  151SOL    HW2  453   0.074   2.265   0.823 -0.8100  0.0788  0.5420
  152SOL     OW  454   0.170   1.844   0.869  0.1121  0.0541 -0.8239
  152SOL    HW1  455   0.078   1.803   0.870 -0.0159  0.2005 -2.6659
  152SOL    HW2  456   0.165   1.937   0.905  0.0251 -0.7356  1.3981
  153SOL     OW  457   0.781   2.151   1.416  0.1468  0.3385 -0.0593
  153SOL    HW1  458   0.806   2.247   1.407  1.2917  0.4683  3.2433
  153SOL    HW2  459   0.720   2.139   1.494  2.5566 -1.8841  1.6561
  154SOL     OW  460   0.543   1.115   0.789  0.3555 -0.2045 -0.0202
  154SOL    HW1  461   0.608   1.185   0.818 -0.9716  0.0082  2.7741
  154SOL    HW2  462   0.582   1.024   0.806  0.8312 -0.1209 -0.6316
  155SOL     OW  463   2.282   0.287   0.318 -0.0744 -0.0411  0.2630
  155SOL    HW1  464   2.197   0.292   0.372  0.1297  0.1857  0.5654
  155SOL    HW2  465   2.260   0.294   0.221 -0.4634 -0.6299  0.3024
  156SOL     OW  466   2.393   1.292   1.534 -0.0922  0.0546  0.3302
  156SOL    HW1  467   2.444   1.377   1.536 -0.6168  0.3620  1.1375
  156SOL    HW2  468   2.406   1.247   1.446  1.9731 -0.1367  0.6817
  157SOL     OW  469   0.677   1.557   1.945  0.5820 -0.0648  0.5283
  157SOL    HW1  470   0.708   1.464   1.926 -0.4417 -0.3615  0.2444
  157SOL    HW2  471   0.630   1.559   2.033  0.0621  0.0488  0.2515
  158SOL     OW  472   2.380   0.632   1.844  0.0863  0.0008  0.8820
  158SOL    HW1  473   2.307   0.650   1.778  0.7980  1.7956  0.5473
  158SOL    HW2  474   2.456   0.694   1.828  0.9479 -0.6156  2.3884
  159SOL     OW  475   1.690   2.431   2.384  0.1966  0.3231  0.0706
  159SOL    HW1  476   1.729   2.411   2.294 -0.1689  1.1582 -0.2845
  159SOL    HW2  477   1.633   2.354   2.413 -0.0770  0.2538 -0.6330
  160SOL     OW  478   2.238   1.919   1.615  0.4454  0.5444 -0.2811
  160SOL    HW1  479   2.275   1.856   1.683  0.5510  0.9083  0.0069
  160SOL    HW2  480   2.230   1.873   1.527 -0.3663 -0.1474  0.1421
  161SOL     OW  481   1.544   0.274   1.207 -0.1578  0.2878  0.1832
  161SOL    HW1  482   1.620   0.321   1.253  0.2801 -0.9689  0.7635
  161SOL    HW2  483   1.477   0.244   1.274 -0.6914  0.5148 -0.2379
  162SOL     OW  484   1.754   1.624   0.769  0.0349 -0.0356 -0.1422
  162SOL    HW1  485   1.814   1.681   0.825  0.8197 -0.4530 -0.5340
  162SOL    HW2  486   1.808   1.581   0.697 -0.6777 -0.7276 -0.2708
  163SOL     OW  487   0.210   0.964   2.141  0.3405  0.3017  0.2221
  163SOL    HW1  488   0.277   0.928   2.207 -0.4529 -0.1828  0.7839
  163SOL    HW2  489   0.186   1.058   2.167 -0.5954 -0.1682  1.1527
  164SOL     OW  490   2.066   1.571   1.938 -0.6569  0.2729  0.2978
  164SOL    HW1  491   2.080   1.650   1.997  0.2519 -0.1916  0.7093
  164SOL    HW2  492   2.144   1.560   1.876 -1.6442  0.8321 -1.1147
  165SOL     OW  493   0.302   1.920   1.434 -0.2639  0.3464  0.0753
  165SOL    HW1  494   0.329   1.980   1.359 -0.9179  0.8357  0.2194
  165SOL    HW2  495   0.382   1.899   1.491  0.0995  0.5333 -0.3621
  166SOL     OW  496   0.452   1.870   0.444  0.4680 -0.0078  0.4292
  166SOL    HW1  497   0.391   1.868   0.523  0.6909 -0.8832  0.5955
  166SOL    HW2  498   0.400   1.850   0.361 -0.2633  3.2780 -0.0556
  167SOL     OW  499   1.412   1.549   0.059 -0.5308  0.2021 -0.0728
  167SOL    HW1  500   1.473   1.604   0.001 -0.5898  0.7226  0.3497
  167SOL    HW2  501   1.467   1.488   0.116 -0.4899 -0.6771 -1.0151
  168SOL     OW  502   2.160   2.036   2.012  0.6404  0.3282 -0.3562
  168SOL    HW1  503   2.258   2.049   2.028  0.5941  1.2115 -0.7482
  168SOL    HW2  504   2.143   2.027   1.914  0.4190 -0.7468 -0.2379
  169SOL     OW  505   1.458   1.395   1.667  0.1792  0.8520 -0.2670
  169SOL    HW1  506   1.388   1.450   1.621  0.0665  0.3051 -0.7522
  169SOL    HW2  507   1.513   1.347   1.599  1.4929  1.8251  0.0796
  170SOL     OW  508   0.286   0.504   1.391 -0.1620 -0.5854  0.2282
  170SOL    HW1  509   0.264   0.478   1.297 -1.2939 -0.3451  0.4060
  170SOL    HW2  510   0.371   0.557   1.393 -0.5247  0.0577 -0.7535
  171SOL     OW  511   2.263   1.034   1.626 -0.0044 -0.2223  0.2192
  171SOL    HW1  512   2.232   1.036   1.720 -0.3454  1.9808  0.0915
  171SOL    HW2  513   2.321   1.113   1.607 -0.3997 -0.3083 -1.5734
  172SOL     OW  514   1.816   1.776   0.078 -0.0862  0.1571 -0.5021
  172SOL    HW1  515   1.915   1.772   0.093 -0.1516  1.2693  0.3605
  172SOL    HW2  516   1.772   1.815   0.158 -1.2595 -0.4676 -0.8179
  173SOL     OW  517   2.365   0.787   0.883  0.2228 -0.0616  0.1774
  173SOL    HW1  518   2.267   0.770   0.891  0.2622 -1.1510 -1.1570
  173SOL    HW2  519   2.384   0.835   0.798  0.9377 -1.0034 -0.2218
  174SOL     OW  520   2.068   0.166   1.407  0.3403  0.1817 -0.5245
  174SOL    HW1  521   2.034   0.243   1.460  2.9380 -0.2986  2.0546
  174SOL    HW2  522   2.118   0.200   1.327  1.5551  1.2493  0.6416
  175SOL     OW  523   2.280   1.483   0.203  0.2859 -0.6599  0.3330
  175SOL    HW1  524   2.186   1.517   0.204  0.0545 -1.2979  0.7933
  175SOL    HW2  525   2.343   1.557   0.228  0.0213  0.0692 -1.0372
  176SOL     OW  526   1.056   1.827   1.144  0.2415  0.3887  0.1472
  176SOL    HW1  527   0.969   1.802   1.101  1.2534 -1.3946 -0.9997
  176SOL    HW2  528   1.093   1.908   1.099 -0.8963  1.2898  0.7868
  177SOL     OW  529   0.106   1.437   0.648  0.2086 -0.0434 -0.4217
  177SOL    HW1  530   0.091   1.499   0.571 -1.2472  0.0136 -0.1334
  177SOL    HW2  531   0.150   1.486   0.723  0.9351  0.0942 -0.9291
  178SOL     OW  532   0.869   2.153   1.137 -0.4798  0.0415 -0.8448
  178SOL    HW1  533   0.967   2.142   1.121  0.2974  2.0136  1.7366
  178SOL    HW2  534   0.848   2.130   1.232 -2.4541  0.1250 -1.2087
  179SOL     OW  535   0.937   1.228   1.010 -0.2166  0.6549 -0.4154
  179SOL    HW1  536   1.027   1.269   0.994 -0.1599  0.7061  0.0199
  179SOL    HW2  537   0.931   1.140   0.964 -0.2291  1.0104 -1.1075
  180SOL     OW  538   0.716   1.645   1.647 -0.1178  0.0650  0.1228
  180SOL    HW1  539   0.705   1.570   1.581 -0.9293  1.0382 -0.8941
  180SOL    HW2  540   0.686   1.615   1.737 -2.5359 -0.2295 -0.6911
  181SOL     OW  541   1.857   0.775   0.034 -0.3287  0.3462  0.2152
  181SOL    HW1  542   1.952   0.773   0.063 -0.2762 -1.4840  0.0283
  181SOL    HW2  543   1.810   0.694   0.068 -0.7734 -0.8866 -3.0169
  182SOL     OW  544   2.304   1.260   1.998  0.1430  0.1509  0.3055
  182SOL    HW1  545   2.348   1.292   2.082  1.6196  0.1547 -0.4424
  182SOL    HW2  546   2.322   1.325   1.924 -0.9720  0.0447 -0.0754
  183SOL     OW  547   1.794   2.293   2.102 -0.1790 -0.2427  0.2995
  183SOL    HW1  548   1.696   2.278   2.090  0.1235 -0.4237 -2.3683
  183SOL    HW2  549   1.820   2.380   2.060  0.9437 -0.5797  0.2768
  184SOL     OW  550   0.230   2.110   0.924 -1.3016  0.5069 -0.2852
  184SOL    HW1  551   0.230   2.190   0.985 -1.9511  1.7459 -1.8339
  184SOL    HW2  552   0.289   2.129   0.845 -0.9157 -0.8477 -0.3389
  185SOL     OW  553   0.533   1.385   0.196 -0.7469  0.4954  0.1411
  185SOL    HW1  554   0.508   1.434   0.279 -0.8000 -1.4998  1.3647
  185SOL    HW2  555   0.465   1.313   0.177 -0.2826  0.3666 -1.1472
  186SOL     OW  556   2.140   1.276   1.206  0.2343  0.2735  0.0901
  186SOL    HW1  557   2.117   1.272   1.109 -0.7019 -1.1645  0.3500
  186SOL    HW2  558   2.237   1.253   1.218  0.6202  1.4755 -0.5756
  187SOL     OW  559   2.079   1.890   0.823  0.3490  0.3444  0.2017
  187SOL    HW1  560   2.171   1.925   0.838  0.8614  0.1435 -2.1736
  187SOL    HW2  561   2.079   1.791   0.838  0.3052  0.4599  1.0130
  188SOL     OW  562   1.577   0.149   0.139 -0.1562 -0.8277  0.4466
  188SOL    HW1  563   1.529   0.087   0.202  0.5669 -1.5925  0.2673
  188SOL    HW2  564   1.620   0.095   0.066  1.9067 -0.3214  1.2169
  189SOL     OW  565   2.219   2.110   0.516 -0.1108 -0.4232 -0.1738
  189SOL    HW1  566   2.149   2.046   0.547  0.4278 -0.4321  1.1160
  189SOL    HW2  567   2.275   2.066   0.445 -0.8279 -0.7441 -0.5473
  190SOL     OW  568   0.746   0.614   0.173  0.1533 -0.2529  0.0060
  190SOL    HW1  569   0.658   0.575   0.147 -1.6970  0.0064  4.7891
  190SOL    HW2  570   0.805   0.541   0.208 -0.4621  0.1694  2.0665
  191SOL     OW  571   0.752   1.531   1.338  0.7005 -0.6064 -0.6927
  191SOL    HW1  572   0.837   1.537   1.285  1.9332  2.1047  1.3694
  191SOL    HW2  573   0.757   1.453   1.400  1.3319 -0.9339 -1.1407
  192SOL     OW  574   0.890   0.084   1.743 -0.0689  0.4874 -0.0613
  192SOL    HW1  575   0.949   0.060   1.820  1.4584  1.5417 -0.8500
  192SOL    HW2  576   0.797   0.100   1.776  0.3535  0.0443  1.4168
  193SOL     OW  577   0.665   0.439   1.285 -0.1150 -0.0738  0.0914
  193SOL    HW1  578   0.629   0.518   1.334  1.3852  0.0797  1.0149
  193SOL    HW2  579   0.593   0.370   1.276 -1.6297  1.5781 -1.2471
  194SOL     OW  580   1.449   1.093   0.579  0.2698 -0.3975 -0.3257
  194SOL    HW1  581   1.490   1.006   0.607 -1.3027 -0.9369  0.3735
  194SOL    HW2  582   1.359   1.103   0.620  0.9971  2.2703  0.8576
  195SOL     OW  583   1.946   2.257   0.449 -0.0626 -0.0035  0.5557
  195SOL    HW1  584   1.951   2.290   0.355  0.6991 -3.3704 -0.6914
  195SOL    HW2  585   2.001   2.174   0.459 -2.8945 -1.7669  3.0698
  196SOL     OW  586   0.690   1.731   0.437 -0.1842  0.0976  0.1296
  196SOL    HW1  587   0.709   1.691   0.347 -1.6592  0.9944 -0.6229
  196SOL    HW2  588   0.596   1.764   0.439 -0.9181 -1.8368  2.7610
  197SOL     OW  589   0.171   1.945   1.676 -0.3529 -0.1723  0.3626
  197SOL    HW1  590   0.241   1.895   1.728 -0.1264  0.2904  0.5067
  197SOL    HW2  591   0.194   1.942   1.579  0.3086  0.6596  0.4858
  198SOL     OW  592   1.356   0.360   0.602  0.0387  0.2419  0.1867
  198SOL    HW1  593   1.359   0.404   0.692 -0.3804 -0.6450  0.6446
  198SOL    HW2  594   1.296   0.280   0.606  1.8998 -1.2424 -0.2264
  199SOL     OW  595   1.025   0.286   0.809  0.7407 -0.2667  0.6968
  199SOL    HW1  596   1.090   0.237   0.751 -0.2771  1.1634 -1.7858
  199SOL    HW2  597   0.949   0.224   0.832  1.8422 -1.2747  1.8005
  200SOL     OW  598   1.504   2.239   2.378  0.3993  0.1592 -0.2386
  200SOL    HW1  599   1.484   2.142   2.391 -1.0472  0.4248 -0.2930
  200SOL    HW2  600   1.502   2.261   2.280  2.8968 -0.1625 -0.4117
  201SOL     OW  601   2.181   2.062   1.298 -0.5090 -0.6261 -0.1440
  201SOL    HW1  602   2.254   2.101   1.354 -0.6767 -0.1162 -0.2696
  201SOL    HW2  603   2.221   2.012   1.221 -0.2879 -0.1772 -0.3263
  202SOL     OW  604   2.132   0.785   0.141 -0.2234 -0.3414  0.5113
  202SOL    HW1  605   2.170   0.692   0.134  0.5565  0.0305 -0.4938
  202SOL    HW2  606   2.150   0.821   0.233 -0.5347 -1.1727  0.9132
  203SOL     OW  607   1.685   0.218   1.872  0.3826  0.0911 -0.1585
  203SOL    HW1  608   1.626   0.280   1.925  0.0250  0.4755 -0.9850
  203SOL    HW2  609   1.724   0.268   1.794  0.5546 -0.5745 -0.5076
  204SOL     OW  610   0.251   0.824   1.356  0.0449 -0.4938 -0.1096
  204SOL    HW1  611   0.168   0.779   1.389 -1.0273  1.2495 -0.2704
  204SOL    HW2  612   0.234   0.862   1.265  0.9810 -0.0100 -0.0998
  205SOL     OW  613   1.644   0.039   1.306 -1.0596 -0.0683 -0.7899
  205SOL    HW1  614   1.634   0.056   1.405 -0.2276  0.3735 -0.7701
  205SOL    HW2  615   1.594   0.108   1.255  0.7262  1.3774 -0.6842
  206SOL     OW  616   2.140   0.312   1.987 -0.8498 -0.0784 -0.0931
  206SOL    HW1  617   2.140   0.231   2.045 -1.3808 -0.0959 -0.1135
  206SOL    HW2  618   2.068   0.375   2.018 -0.1988  0.5609  0.1664
  207SOL     OW  619   0.996   0.535   0.616  0.1323 -0.7204 -0.1069
  207SOL    HW1  620   1.028   0.496   0.530 -0.6745 -0.4091 -0.5637
  207SOL    HW2  621   1.010   0.470   0.690  1.1666 -0.8543 -0.4034
  208SOL     OW  622   2.308   2.112   0.933 -0.3405  0.0727  0.1387
  208SOL    HW1  623   2.217   2.144   0.907 -0.6442 -1.2574 -0.4902
  208SOL    HW2  624   2.374   2.137   0.863 -0.0050  1.8318  1.0037
  209SOL     OW  625   1.307   0.988   1.235  0.4237 -0.0710 -0.3310
  209SOL    HW1  626   1.224   0.987   1.179  0.6069 -0.0117 -0.6038
  209SOL    HW2  627   1.285   1.026   1.325 -0.0306 -0.8361 -0.1060
  210SOL     OW  628   0.281   2.213   1.473  0.3360 -0.5678 -0.1493
  210SOL    HW1  629   0.297   2.194   1.570  0.5162 -0.8066 -0.2242
  210SOL    HW2  630   0.369   2.216   1.425  0.6803  3.5708  0.3919
  211SOL     OW  631   0.150   1.337   2.432  0.5143 -0.0760  0.1002
  211SOL    HW1  632   0.052   1.328   2.449  0.5508 -0.4636  0.1128
  211SOL    HW2  633   0.171   1.306   2.339  0.4528  1.1299 -0.3273
  212SOL     OW  634   2.153   0.450   0.718 -0.1883 -0.2161  0.7680
  212SOL    HW1  635   2.141   0.400   0.631  0.0187  0.5196  0.3089
  212SOL    HW2  636   2.087   0.524   0.723  0.1102  0.0334  1.0246
  213SOL     OW  637   1.412   0.688   0.116  0.3930 -0.2099  0.1960
  213SOL    HW1  638   1.463   0.773   0.128 -0.5314  0.5054 -0.8662
  213SOL    HW2  639   1.471   0.611   0.142  1.8468  0.6212 -0.4851
  214SOL     OW  640   0.637   0.051   0.353 -0.5408  0.4198 -0.3878
  214SOL    HW1  641   0.633  -0.033   0.408  0.2602  0.1098 -0.7806
  214SOL    HW2  642   0.603   0.032   0.261 -0.1056  0.4445 -0.5585
  215SOL     OW  643   1.886   1.569   2.275 -0.4766  0.0364 -0.0652
  215SOL    HW1  644   1.960   1.588   2.210  0.3338 -0.3163  0.7304
  215SOL    HW2  645   1.924   1.523   2.356 -1.8015 -1.4803 -0.2766
  216SOL     OW  646   1.151   1.618   0.058 -0.5972  0.2719  0.4208
  216SOL    HW1  647   1.106   1.576   0.137  0.8201 -0.5038  0.8498
  216SOL    HW2  648   1.248   1.592   0.057 -0.5364  0.4785 -1.4556
  217SOL     OW  649   1.906   1.835   0.434 -0.1783  0.2913 -0.5431
  217SOL    HW1  650   1.832   1.860   0.371 -0.1614  1.6362 -0.0551
  217SOL    HW2  651   1.914   1.904   0.506 -0.9872 -1.7907  1.6859
  218SOL     OW  652   0.567   2.246   2.124 -0.3961 -0.3359 -0.0930
  218SOL    HW1  653   0.519   2.158   2.124  1.1460 -1.2580 -1.9205
  218SOL    HW2  654   0.543   2.297   2.206  0.4968 -3.4776  2.3234
  219SOL     OW  655   1.526   0.740   2.322 -0.2472 -0.5271 -0.4975
  219SOL    HW1  656   1.616   0.703   2.299 -0.0171 -0.3511  0.1095
  219SOL    HW2  657   1.480   0.678   2.386 -0.9787 -1.1301 -1.5736
  220SOL     OW  658   0.077   0.219   0.782 -1.0139  0.7569 -0.3110
  220SOL    HW1  659  -0.021   0.201   0.778 -0.6627 -1.2500 -0.9860
  220SOL    HW2  660   0.126   0.147   0.733  0.8334  1.5219  0.3244
  221SOL     OW  661   2.200   1.635   2.307  0.4909  0.2805  0.5740
  221SOL    HW1  662   2.286   1.636   2.255  0.5659  0.1135  0.6954
  221SOL    HW2  663   2.179   1.541   2.335 -0.6485  0.0120 -0.9962
  222SOL     OW  664   0.584   1.167   2.333 -0.1859  0.2907 -0.4840
  222SOL    HW1  665   0.502   1.113   2.310  0.7016 -0.6181 -1.6583
  222SOL    HW2  666   0.664   1.125   2.291  1.1334  0.3438  1.7796
  223SOL     OW  667   1.908   0.657   0.416 -1.3859  0.5819 -0.1518
  223SOL    HW1  668   1.973   0.589   0.384 -0.9288  1.2967 -0.7830
  223SOL    HW2  669   1.816   0.633   0.384 -1.2427  0.2282 -0.2993
  224SOL     OW  670   1.554   2.373   0.839  0.1820  0.0723  0.2866
  224SOL    HW1  671   1.506   2.456   0.868  1.8182  1.6610 -1.2309
  224SOL    HW2  672   1.570   2.314   0.918 -0.8151  1.3183  1.4614
  225SOL     OW  673   2.309   0.488   1.149  0.5771  0.1283 -0.5070
  225SOL    HW1  674   2.366   0.567   1.129  1.3477 -0.0187  0.9843
  225SOL    HW2  675   2.362   0.420   1.199 -0.3425 -0.9203 -0.8999
  226SOL     OW  676   1.052   0.426   1.617 -0.0634  0.3759 -1.1016
  226SOL    HW1  677   1.036   0.340   1.569  2.4724 -1.0879  0.4516
  226SOL    HW2  678   0.977   0.444   1.680  0.1603 -1.6822 -0.1699
  227SOL     OW  679   2.459   1.234   0.779  0.0940 -0.0557  0.5003
  227SOL    HW1  680   2.536   1.171   0.780 -1.2328 -1.7767 -0.7509
  227SOL    HW2  681   2.482   1.314   0.723  1.2749 -0.0961  0.8984
  228SOL     OW  682   0.464   1.324   1.474  0.1137  0.0506 -0.1063
  228SOL    HW1  683   0.561   1.306   1.489 -0.0398 -0.8192 -0.1057
  228SOL    HW2  684   0.440   1.309   1.378 -0.0094  0.3326 -0.1226
  229SOL     OW  685   1.168   0.220   2.123  0.4330  0.3064  0.1351
  229SOL    HW1  686   1.146   0.315   2.145 -0.8667 -0.1186  0.8134
  229SOL    HW2  687   1.216   0.178   2.200 -1.5820 -0.3744  1.0894
  230SOL     OW  688   0.394   0.951   2.335 -0.3258  0.3911  0.0420
  230SOL    HW1  689   0.408   0.852   2.334  0.1632  0.4562  0.2513
  230SOL    HW2  690   0.351   0.978   2.420  0.3560  0.4593  0.3769
  231SOL     OW  691   1.593   1.114   0.309  0.5712 -0.6810  0.3191
  231SOL    HW1  692   1.635   1.203   0.327  2.5749 -1.1029 -1.8872
  231SOL    HW2  693   1.530   1.092   0.384 -0.6804  2.9431  0.5133
  232SOL     OW  694   2.036   1.145   1.449  0.6876 -0.3657  0.4272
  232SOL    HW1  695   2.104   1.161   1.520 -0.3648  0.3064  1.3254
  232SOL    HW2  696   2.043   1.215   1.379  2.2613 -1.4876 -0.5945
  233SOL     OW  697   0.927   0.065   0.373  0.1885  0.2438  0.3717
  233SOL    HW1  698   0.835   0.089   0.342 -0.9189 -0.8269  2.5950
  233SOL    HW2  699   0.921   0.008   0.455  2.8808  1.2209  1.3603
  234SOL     OW  700   0.735   1.659   0.679 -0.1066 -0.0233 -0.2594
  234SOL    HW1  701   0.717   1.681   0.583  1.2102  1.0077 -0.2823
  234SOL    HW2  702   0.813   1.597   0.685 -0.7809 -0.8632  0.1110
  235SOL     OW  703   2.283   0.943   1.363 -0.1665  0.1014 -0.2142
  235SOL    HW1  704   2.340   0.862   1.357  0.0284  0.2946 -1.0172
  235SOL    HW2  705   2.272   0.969   1.459 -0.9455 -1.3613  0.1274
  236SOL     OW  706   1.124   0.974   0.403 -0.3540 -0.4484  0.1493
  236SOL    HW1  707   1.186   1.038   0.357 -0.8778  0.6096  0.8582
  236SOL    HW2  708   1.061   1.026   0.461  0.4433 -1.7178  2.2700
  237SOL     OW  709   0.802   1.064   2.199  0.6878  0.2073  0.4822
  237SOL    HW1  710   0.888   1.073   2.249  1.2337 -1.3673 -0.0910
  237SOL    HW2  711   0.817   1.088   2.103  0.1431  1.2158  0.6321
  238SOL     OW  712   1.830   0.979   2.294 -0.3162  0.0326 -0.1352
  238SOL    HW1  713   1.859   0.922   2.371  0.5898  1.2967  0.4890
  238SOL    HW2  714   1.902   0.978   2.224 -0.0342  0.8646  0.1382
  239SOL     OW  715   0.507   2.399   2.329 -0.0890  0.1732  0.1069
  239SOL    HW1  716   0.430   2.381   2.390  1.1521  0.5012  1.8136
  239SOL    HW2  717   0.505   2.496   2.301  0.4016  0.4998  1.1710
  240SOL     OW  718   1.287   0.797   1.616 -0.2171  0.4757  0.2071
  240SOL    HW1  719   1.355   0.802   1.689  0.8732  2.6976 -0.8430
  240SOL    HW2  720   1.197   0.780   1.654  0.4356  0.8288  1.9920
  241SOL     OW  721   1.214   0.666   1.240  0.3883  0.2275  0.0231
  241SOL    HW1  722   1.264   0.750   1.263  1.0361 -0.6941  2.2334
  241SOL    HW2  723   1.223   0.601   1.315 -2.5346 -0.7251 -0.3390
  242SOL     OW  724   2.040   0.952   1.179 -0.0402 -0.3023 -0.0273
  242SOL    HW1  725   1.965   0.943   1.244  0.5857  1.2595  0.9575
  242SOL    HW2  726   2.127   0.954   1.228  0.3687  2.4480 -0.6973
  243SOL     OW  727   0.994   0.044   1.979 -0.6125 -0.1689  0.4560
  243SOL    HW1  728   1.035   0.118   2.032 -0.3194 -0.8916  1.2728
  243SOL    HW2  729   0.902   0.024   2.013 -0.5916 -0.3498  0.4113
  244SOL     OW  730   1.589   0.877   0.181 -0.7469  0.1372  0.2891
  244SOL    HW1  731   1.583   0.971   0.216 -1.1758 -0.1852  1.0849
  244SOL    HW2  732   1.683   0.859   0.151 -0.8834  1.1637 -0.8742
  245SOL     OW  733   1.172   1.114   2.364  0.5205  0.1328  0.1176
  245SOL    HW1  734   1.248   1.072   2.414  0.9033  0.6036 -0.0608
  245SOL    HW2  735   1.089   1.062   2.381  1.4391 -2.3057 -2.1415
  246SOL     OW  736   2.079   0.280   0.521  0.5225 -0.3597 -0.2207
  246SOL    HW1  737   1.994   0.312   0.478  0.3729 -0.5159 -0.0415
  246SOL    HW2  738   2.063   0.192   0.566  0.8109 -0.4512 -0.2930
  247SOL     OW  739   0.518   0.639   1.375 -0.0590  0.3137  0.4936
  247SOL    HW1  740   0.516   0.661   1.277  3.3966  1.2020  0.4905
  247SOL    HW2  741   0.484   0.717   1.427 -1.2550  0.1056  0.0524
  248SOL     OW  742   0.667   0.106   1.458 -0.3078 -0.9437 -0.6899
  248SOL    HW1  743   0.615   0.187   1.484 -0.1482 -1.1847  0.4173
  248SOL    HW2  744   0.624   0.025   1.497  0.1113 -1.2865 -0.9353
  249SOL     OW  745   1.009   1.716   2.312 -0.3373  0.1944 -0.2997
  249SOL    HW1  746   1.090   1.672   2.352 -0.7598 -0.8848 -0.6072
  249SOL    HW2  747   0.930   1.657   2.323 -1.6968  2.2492  2.2393
  250SOL     OW  748   0.104   2.120   2.271  0.6082 -0.0527 -0.1942
  250SOL    HW1  749   0.189   2.074   2.244  1.8393  1.7677  0.3566
  250SOL    HW2  750   0.110   2.217   2.247 -1.3431  0.1173 -0.1297
  251SOL     OW  751   2.418   2.053   2.051 -0.1064 -0.0431 -0.5481
  251SOL    HW1  752   2.485   2.049   2.125 -0.7056 -0.7353 -0.0323
  251SOL    HW2  753   2.454   2.110   1.977  0.2136  1.2161  0.5435
  252SOL     OW  754   1.635   0.684   0.408 -0.2841  0.0114  0.2464
  252SOL    HW1  755   1.543   0.645   0.407 -0.0580 -0.5227  0.3443
  252SOL    HW2  756   1.640   0.757   0.340 -0.1775 -1.3531 -1.2689
  253SOL     OW  757   2.245   2.084   2.428  0.3970  0.1399  0.0483
  253SOL    HW1  758   2.166   2.115   2.375 -1.2403 -1.9463  1.1274
  253SOL    HW2  759   2.275   2.158   2.489 -1.3720  0.6998  0.3103
  254SOL     OW  760   0.278   0.477   1.655  0.0805 -0.3597 -0.6346
  254SOL    HW1  761   0.195   0.440   1.696  0.9833 -3.3109 -1.2363
  254SOL    HW2  762   0.269   0.479   1.555  0.6983 -0.6489 -0.7012
  255SOL     OW  763   2.365   2.153   1.454  0.0638 -0.2863  0.0174
  255SOL    HW1  764   2.442   2.217   1.460 -0.1182 -0.0510 -0.1291
  255SOL    HW2  765   2.347   2.115   1.544 -0.1352  0.2409  0.2070
  256SOL     OW  766   1.458   1.974   2.437 -0.2056 -0.2138 -0.4131
  256SOL    HW1  767   1.423   1.883   2.460 -0.3135  0.1467  0.9572
  256SOL    HW2  768   1.410   2.042   2.493  1.7196  0.4160  0.5504
  257SOL     OW  769   0.225   2.467   0.677 -0.0222  0.4232 -0.5360
  257SOL    HW1  770   0.240   2.480   0.579 -0.3968  0.4363 -0.5938
  257SOL    HW2  771   0.298   2.410   0.714  0.3932  0.8271 -0.7217
  258SOL     OW  772   0.647   2.054   0.451  0.1718  0.2041 -0.4300
  258SOL    HW1  773   0.734   2.027   0.493 -0.9453 -1.3526  0.9968
  258SOL    HW2  774   0.584   1.977   0.453 -1.0532  1.1122 -2.0390
  259SOL     OW  775   0.650   0.929   1.058  0.2406 -0.1942 -0.3527
  259SOL    HW1  776   0.607   0.843   1.085  1.1742 -1.1439 -1.7688
  259SOL    HW2  777   0.662   0.931   0.959  2.6016  0.4007 -0.1156
  260SOL     OW  778   1.701   2.399   0.611  0.0551  0.3699 -0.6862
  260SOL    HW1  779   1.784   2.358   0.648 -0.0845 -0.8551 -1.6534
  260SOL    HW2  780   1.633   2.407   0.684 -0.1735 -1.8491 -0.5738
  261SOL     OW  781   0.808   0.507   1.045  0.2323 -0.6975 -0.4588
  261SOL    HW1  782   0.759   0.479   1.128  0.0782 -0.6191 -0.5243
  261SOL    HW2  783   0.902   0.473   1.050  0.2889 -0.5046 -0.1482
  262SOL     OW  784   1.144   1.835   0.223  0.0510 -0.4003 -0.2578
  262SOL    HW1  785   1.100   1.916   0.185  0.6211  0.2712  0.4881
  262SOL    HW2  786   1.155   1.766   0.152  0.7824  0.6929 -1.2306
  263SOL     OW  787   2.233   2.461   1.512  0.1805  0.0924 -0.5616
  263SOL    HW1  788   2.191   2.371   1.527  1.3744 -0.0967  2.1748
  263SOL    HW2  789   2.164   2.524   1.476 -0.9224 -1.6385 -1.6358
  264SOL     OW  790   0.532   0.182   1.227  0.3778  0.1082 -0.5797
  264SOL    HW1  791   0.571   0.175   1.319 -1.2952 -0.1608  0.1358
  264SOL    HW2  792   0.500   0.092   1.197  1.3036  0.1054 -1.6277
  265SOL     OW  793   1.945   2.019   0.611 -0.3082  0.7218  0.2877
  265SOL    HW1  794   1.978   1.993   0.702 -2.2371 -0.9276  0.5810
  265SOL    HW2  795   1.893   2.103   0.617  0.8516  1.4591  0.4036
  266SOL     OW  796   0.084   1.806   1.320 -0.2150  0.1544  0.0696
  266SOL    HW1  797   0.027   1.875   1.275  1.4123 -0.4515 -3.2733
  266SOL    HW2  798   0.163   1.850   1.362  0.4535  0.4624 -1.4408
  267SOL     OW  799   0.551   0.009   0.816 -0.5455  0.3560  0.5656
  267SOL    HW1  800   0.521   0.092   0.863  0.6798 -0.4300  2.8711
  267SOL    HW2  801   0.576  -0.060   0.883  2.4051 -0.4658 -1.1971
  268SOL     OW  802   0.525   0.179   2.268  0.2090 -0.4315 -0.0568
  268SOL    HW1  803   0.518   0.273   2.234 -0.9302 -1.1808 -2.1600
  268SOL    HW2  804   0.615   0.163   2.306  2.4036  0.1676 -4.3481
  269SOL     OW  805   2.460   1.849   1.852  0.2528  0.0838  0.4774
  269SOL    HW1  806   2.425   1.916   1.918 -2.1395  0.0720 -0.6599
  269SOL    HW2  807   2.506   1.897   1.777 -0.8630  0.4378  0.0014
  270SOL     OW  808   1.484   1.895   2.159  0.1595 -0.5266  0.0661
  270SOL    HW1  809   1.427   1.965   2.116  1.8247  0.0365 -1.3574
  270SOL    HW2  810   1.473   1.899   2.258 -2.0745 -0.3301 -0.1304
  271SOL     OW  811   1.890   1.242   1.971  0.6262 -0.1149 -0.5319
  271SOL    HW1  812   1.846   1.275   1.888  1.6721 -0.3299 -1.1917
  271SOL    HW2  813   1.910   1.144   1.962  3.3380  0.4077 -1.2711
  272SOL     OW  814   0.246   1.159   0.575  0.2844  0.3883  0.2891
  272SOL    HW1  815   0.332   1.174   0.526 -0.4127 -0.0237 -1.1335
  272SOL    HW2  816   0.200   1.247   0.589 -0.1302  0.4069 -1.0429
  273SOL     OW  817   0.287   1.250   0.865  0.4970 -0.0478 -0.3571
  273SOL    HW1  818   0.363   1.198   0.827  0.9697  0.1722  0.2795
  273SOL    HW2  819   0.300   1.347   0.846 -0.3521 -0.1378 -1.4870
  274SOL     OW  820   2.062   0.743   1.007  0.4714 -0.2918  0.0798
  274SOL    HW1  821   2.041   0.810   1.079 -0.5425 -0.3272 -0.1592
  274SOL    HW2  822   1.981   0.687   0.989  0.0365  0.9806 -2.4083
  275SOL     OW  823   2.063   0.467   1.248  0.1624  0.5089 -0.1165
  275SOL    HW1  824   2.003   0.410   1.192  0.9423 -0.8303  0.3576
  275SOL    HW2  825   2.157   0.460   1.213  0.5964 -0.0602  1.1296
  276SOL     OW  826   0.982   2.429   2.427 -0.7109 -0.7935 -0.0760
  276SOL    HW1  827   0.999   2.369   2.349 -0.0749 -1.4659  0.5649
  276SOL    HW2  828   1.068   2.444   2.476 -1.2453 -1.0458  0.9645
  277SOL     OW  829   1.243   2.392   0.058  0.2292  0.5369  0.5379
  277SOL    HW1  830   1.211   2.299   0.047 -0.1284  0.5831  1.1371
  277SOL    HW2  831   1.301   2.398   0.139 -1.3851  1.2313  1.6934
  278SOL     OW  832   1.532   0.906   1.149  0.1183  0.2373 -0.0381
  278SOL    HW1  833   1.582   0.854   1.218 -1.2263  0.4155  1.1076
  278SOL    HW2  834   1.447   0.941   1.188 -0.1311  1.3298 -1.4580
  279SOL     OW  835   0.952   2.018   0.129  0.0122 -0.0493  0.2438
  279SOL    HW1  836   0.879   1.964   0.088 -0.2122  0.4495 -0.0304
  279SOL    HW2  837   0.914   2.076   0.201  0.6794 -2.1998  2.4236
  280SOL     OW  838   0.496   2.174   1.316 -0.2215 -0.4209  0.1326
  280SOL    HW1  839   0.594   2.153   1.307 -0.1877  0.3622 -1.7567
  280SOL    HW2  840   0.443   2.119   1.252 -1.1490 -1.3645  1.6397
  281SOL     OW  841   1.401   0.557   0.424  0.2999 -0.0253  0.4080
  281SOL    HW1  842   1.327   0.623   0.433 -0.0840 -0.3940 -0.0324
  281SOL    HW2  843   1.385   0.481   0.487 -0.7388 -1.0674 -1.0695
  282SOL     OW  844   2.236   2.313   0.151 -0.2905 -0.0558  0.3379
  282SOL    HW1  845   2.140   2.298   0.173 -0.3129  1.3284  1.3319
  282SOL    HW2  846   2.294   2.261   0.213 -0.4009  1.1406  1.4968
  283SOL     OW  847   1.149   2.141   2.465 -0.6274  0.0049  0.4799
  283SOL    HW1  848   1.126   2.157   2.370  2.0001 -2.0226 -0.6486
  283SOL    HW2  849   1.077   2.088   2.509 -1.4199  0.1097 -0.6709
  284SOL     OW  850   2.398   0.037   1.308  0.0866 -0.1410  0.1632
  284SOL    HW1  851   2.349  -0.002   1.230 -0.1153  0.4367 -0.0027
  284SOL    HW2  852   2.343   0.025   1.391  0.3305 -0.8146  0.2347
  285SOL     OW  853   2.052   2.052   1.735  0.3105 -0.0045  0.0486
  285SOL    HW1  854   1.985   1.979   1.748  0.1225  0.0687 -0.4530
  285SOL    HW2  855   2.130   2.017   1.683  0.1435  0.1858 -0.3386
  286SOL     OW  856   0.283   0.834   1.032 -0.3421 -0.2974  0.5004
  286SOL    HW1  857   0.192   0.798   1.013 -0.9313  1.6947 -0.7392
  286SOL    HW2  858   0.334   0.843   0.946 -0.3002  1.9093  0.7126
  287SOL     OW  859   0.785   1.860   1.375 -0.1372  0.2945  0.1534
  287SOL    HW1  860   0.789   1.942   1.431  1.4062  1.7885 -1.9755
  287SOL    HW2  861   0.857   1.796   1.403  0.1433  0.6940  0.3500
  288SOL     OW  862   0.749   1.328   1.518  0.3361 -0.2785 -0.0211
  288SOL    HW1  863   0.831   1.371   1.555  2.2545 -0.5528 -3.5380
  288SOL    HW2  864   0.766   1.230   1.504 -0.2880 -0.2181 -1.3996
  289SOL     OW  865   0.536   0.440   2.134  0.5057 -0.1876 -0.3721
  289SOL    HW1  866   0.607   0.461   2.067  0.6377 -0.8010 -0.4317
  289SOL    HW2  867   0.459   0.502   2.121  0.6226 -0.1567 -0.9527
  290SOL     OW  868   0.053   0.454   0.075  0.4325  0.1837  0.1197
  290SOL    HW1  869   0.117   0.524   0.107  1.4132 -0.3917 -0.5198
  290SOL    HW2  870   0.088   0.364   0.098  0.0403 -0.1552 -0.5644
  291SOL     OW  871   0.228   0.611   2.119  0.9526  0.7054  0.4034
  291SOL    HW1  872   0.144   0.618   2.174  0.3798  1.9698 -0.5783
  291SOL    HW2  873   0.217   0.665   2.035  1.5224 -1.7171 -1.3335
  292SOL     OW  874   1.126   2.099   1.054  0.0766  0.1637 -0.2040
  292SOL    HW1  875   1.205   2.136   1.103  1.2863 -1.5384 -0.7994
  292SOL    HW2  876   1.151   2.079   0.960 -1.5692  1.1555 -0.9112
  293SOL     OW  877   0.239   0.140   1.002 -0.1587  0.4731 -0.0454
  293SOL    HW1  878   0.165   0.195   0.963 -0.0378  0.3185 -0.4953
  293SOL    HW2  879   0.325   0.161   0.955  0.2970  1.3842  1.1241
  294SOL     OW  880   2.302   1.674   1.738 -0.0070  0.4347 -0.4134
  294SOL    HW1  881   2.388   1.716   1.766  0.0842 -0.7016  1.1667
  294SOL    HW2  882   2.295   1.675   1.639  0.8151  2.4687 -0.5043
  295SOL     OW  883   0.731   1.113   0.355 -0.1355  0.2471 -0.2183
  295SOL    HW1  884   0.748   1.203   0.314 -0.0984 -0.0859 -0.9488
  295SOL    HW2  885   0.761   1.041   0.292  2.3947 -0.2888  1.4495
  296SOL     OW  886   1.676   1.371   0.390 -0.1849  0.1392 -0.3303
  296SOL    HW1  887   1.660   1.420   0.476  2.0158  0.2059  0.1012
  296SOL    HW2  888   1.690   1.437   0.316  0.1844  0.1298 -0.2713
  297SOL     OW  889   1.964   2.271   0.171  0.6269  0.2392  0.2261
  297SOL    HW1  890   1.951   2.371   0.168  0.1252  0.2455  1.7134
  297SOL    HW2  891   1.888   2.226   0.124 -0.2697  0.5312  1.3375
  298SOL     OW  892   0.096   2.390   0.236 -0.3378  0.1424 -0.6143
  298SOL    HW1  893   0.016   2.427   0.282 -0.7808  0.1366 -1.3710
  298SOL    HW2  894   0.068   2.317   0.173  0.5342 -1.7299  1.0584
  299SOL     OW  895   0.139   1.374   0.330 -0.3402  0.1373  0.2323
  299SOL    HW1  896   0.069   1.430   0.285 -0.6552 -0.4292 -0.0002
  299SOL    HW2  897   0.098   1.287   0.358  0.0055  0.2389  1.0759
  300SOL     OW  898   2.458   1.834   2.392 -0.1377 -0.0528  0.0538
  300SOL    HW1  899   2.470   1.932   2.378 -2.5924  0.4183  0.7489
  300SOL    HW2  900   2.493   1.809   2.482  0.1230  0.2512  0.0400
  301SOL     OW  901   0.397   0.673   2.339 -0.2418 -0.0361 -0.3303
  301SOL    HW1  902   0.334   0.667   2.261 -1.9140  0.7090  0.8979
  301SOL    HW2  903   0.395   0.588   2.390 -0.1942 -0.0401 -0.3351
  302SOL     OW  904   0.516   1.422   0.617  0.2880  0.4962  0.1949
  302SOL    HW1  905   0.612   1.398   0.603 -0.1565 -0.2972 -1.9533
  302SOL    HW2  906   0.504   1.460   0.708  2.4704 -0.2236  0.8498
  303SOL     OW  907   1.520   2.229   1.412  0.0612 -0.2744  0.1194
  303SOL    HW1  908   1.548   2.323   1.432  1.5135 -0.3626 -1.2268
  303SOL    HW2  909   1.505   2.180   1.497  0.1906  0.9138  0.8573
  304SOL     OW  910   1.590   1.159   1.212 -0.2058 -0.4632 -0.8817
  304SOL    HW1  911   1.554   1.067   1.197  0.8458 -1.3444  1.5053
  304SOL    HW2  912   1.601   1.205   1.124  0.6810 -3.1972 -2.3276
  305SOL     OW  913   0.797   2.199   0.284 -0.4236  0.1832 -0.1508
  305SOL    HW1  914   0.728   2.135   0.318  0.4175  0.2880  1.8453
  305SOL    HW2  915   0.758   2.252   0.209 -1.4694 -1.9227 -1.2004
  306SOL     OW  916   1.140   0.587   0.196 -0.3080  0.0864 -0.1072
  306SOL    HW1  917   1.228   0.635   0.201  0.1490 -0.7615  0.2892
  306SOL    HW2  918   1.065   0.652   0.209  0.3039  0.6499  0.6696
  307SOL     OW  919   1.177   0.395   2.467  0.5981  0.4921  0.0277
  307SOL    HW1  920   1.176   0.475   2.527 -0.2156  0.1405  0.5072
  307SOL    HW2  921   1.165   0.312   2.521 -0.2043  0.1734 -0.6057
  308SOL     OW  922   1.901   0.992   1.920  0.0015  0.9256  0.0245
  308SOL    HW1  923   1.937   0.930   1.989 -0.3924  0.6880  0.0233
  308SOL    HW2  924   1.886   0.942   1.835 -0.3464  1.0147  0.0311
  309SOL     OW  925   1.514   0.434   0.205 -0.3168  0.2113 -0.0213
  309SOL    HW1  926   1.532   0.342   0.168  1.7535  0.5143  0.1211
  309SOL    HW2  927   1.469   0.426   0.294 -0.2462 -0.6560 -0.0555
  310SOL     OW  928   2.177   0.651   1.641 -0.2141  0.4358 -0.0448
  310SOL    HW1  929   2.109   0.693   1.581  0.3618  0.1732 -0.9016
  310SOL    HW2  930   2.229   0.582   1.590  0.3172  0.2312  0.7470
  311SOL     OW  931   1.865   0.984   0.582 -0.1662  0.4259 -0.4802
  311SOL    HW1  932   1.956   0.959   0.616 -0.4509 -0.4133 -0.3047
  311SOL    HW2  933   1.855   1.083   0.582  1.4999  0.6676 -2.4542
  312SOL     OW  934   0.288   1.970   0.102 -0.0205 -0.2689 -0.0613
  312SOL    HW1  935   0.382   1.988   0.074  0.3380 -1.1665  0.5325
  312SOL    HW2  936   0.287   1.897   0.171 -1.3742 -2.5149 -2.2879
  313SOL     OW  937   0.539   1.595   0.838  0.2176  0.2580 -0.3961
  313SOL    HW1  938   0.472   1.668   0.849  0.6586  0.5742  0.3032
  313SOL    HW2  939   0.615   1.628   0.781  0.6127  0.4926  0.2542
  314SOL     OW  940   1.050   0.450   2.242 -0.2693  0.3214 -0.1299
  314SOL    HW1  941   1.103   0.420   2.321  0.6045  0.0010 -0.8222
  314SOL    HW2  942   1.074   0.545   2.220  0.0860  0.1451 -0.5017
  315SOL     OW  943   0.292   1.263   1.956  0.6989  0.2557 -0.0380
  315SOL    HW1  944   0.310   1.216   1.870  0.1254  0.9917 -0.5797
  315SOL    HW2  945   0.294   1.362   1.941 -1.5971  0.4193  0.2633
  316SOL     OW  946   1.839   0.565   0.937  0.4510  0.2667 -0.9816
  316SOL    HW1  947   1.749   0.598   0.964  0.2761 -0.3790 -0.7391
  316SOL    HW2  948   1.853   0.582   0.839  0.9079  2.2080 -0.6199
  317SOL     OW  949   1.992   1.384   2.436 -0.3967  0.1301 -0.9071
  317SOL    HW1  950   1.948   1.305   2.478  0.2637 -1.0039 -2.2526
  317SOL    HW2  951   2.015   1.363   2.341 -0.3506  2.0143 -1.3658
  318SOL     OW  952   0.921   0.744   1.204 -0.3246  0.2582 -0.5354
  318SOL    HW1  953   1.016   0.714   1.213 -0.7654 -0.8936  0.6044
  318SOL    HW2  954   0.888   0.725   1.112 -0.2099 -1.7771 -0.2126
  319SOL     OW  955   2.119   0.881   0.731  0.4609  0.0011 -0.3630
  319SOL    HW1  956   2.197   0.941   0.715  0.1411  0.2413 -1.0265
  319SOL    HW2  957   2.090   0.889   0.827  0.9689  0.2373 -0.2250
  320SOL     OW  958   1.684   0.648   1.771 -0.1956  0.1790  0.2391
  320SOL    HW1  959   1.604   0.707   1.767 -0.4183 -0.0665  1.0155
  320SOL    HW2  960   1.703   0.622   1.865 -0.5762 -1.6357 -0.1315
  321SOL     OW  961   0.052   0.651   1.053 -0.5291 -0.3407  0.1230
  321SOL    HW1  962  -0.021   0.699   1.003 -0.0986 -2.3420 -2.6507
  321SOL    HW2  963   0.083   0.573   0.999  1.1677 -1.7221  2.9054
  322SOL     OW  964   2.336   1.674   0.637 -0.8409  0.1474  0.0929
  322SOL    HW1  965   2.260   1.699   0.577 -0.6368 -0.3521 -0.3804
  322SOL    HW2  966   2.328   1.578   0.664 -0.5470  0.1758  0.2905
  323SOL     OW  967   0.106   2.306   1.287 -0.0092 -0.5311  0.3308
  323SOL    HW1  968   0.184   2.282   1.345  0.9340  0.7392 -0.3646
  323SOL    HW2  969   0.062   2.388   1.323  0.1415 -0.1541 -0.3256
  324SOL     OW  970   1.784   0.557   0.186 -0.3070 -0.3748 -0.0671
  324SOL    HW1  971   1.840   0.504   0.251  0.7875 -0.2714 -0.8970
  324SOL    HW2  972   1.688   0.531   0.196 -0.1210 -0.5846  1.3719
  325SOL     OW  973   1.079   1.260   1.482 -0.1556  0.3284  0.1839
  325SOL    HW1  974   1.143   1.190   1.514 -0.7860  0.0914  0.9560
  325SOL    HW2  975   1.026   1.224   1.406 -0.3583  0.0282  0.4674
  326SOL     OW  976   0.980   2.389   1.022  0.3269 -0.0987  0.1881
  326SOL    HW1  977   0.926   2.316   1.064  0.7541  0.2519  1.4156
  326SOL    HW2  978   1.074   2.384   1.056  0.4972  0.6833 -0.1435
  327SOL     OW  979   0.772   1.142   0.065  0.2060  0.1971  0.3785
  327SOL    HW1  980   0.714   1.181  -0.007 -1.7028  0.8186  2.1702
  327SOL    HW2  981   0.742   1.048   0.084 -0.6772  0.7412  1.7551
  328SOL     OW  982   0.681   0.675   2.376 -0.0841  0.2394 -0.5777
  328SOL    HW1  983   0.723   0.675   2.467  0.1402  0.5266 -0.6808
  328SOL    HW2  984   0.582   0.673   2.385 -0.0532 -1.0185 -0.3329
  329SOL     OW  985   1.542   1.487   0.673 -0.4960  0.4957  1.0352
  329SOL    HW1  986   1.451   1.524   0.692 -0.3697  1.6295 -0.3551
  329SOL    HW2  987   1.610   1.537   0.726 -0.6085  0.1054  1.5567
  330SOL     OW  988   1.280   0.371   0.856  0.2567  0.1651  0.2156
  330SOL    HW1  989   1.302   0.467   0.837  2.2135 -0.7160 -2.5918
  330SOL    HW2  990   1.180   0.360   0.854  0.0293  1.9148 -0.7069
  331SOL     OW  991   0.302   2.431   0.417  0.3474  0.7154  0.1729
  331SOL    HW1  992   0.367   2.355   0.413  2.6261  2.6342 -1.3527
  331SOL    HW2  993   0.228   2.415   0.351  0.5971 -0.2970  0.1120
  332SOL     OW  994   1.832   2.005   1.537 -0.2856 -0.1944 -0.3223
  332SOL    HW1  995   1.788   2.049   1.615 -1.4547  0.9010 -1.5510
  332SOL    HW2  996   1.842   2.071   1.462  0.0815 -1.4077 -1.3841
  333SOL     OW  997   2.143   0.216   1.156 -0.6909 -0.3197  0.2064
  333SOL    HW1  998   2.211   0.185   1.089 -0.5863 -1.7744  0.9445
  333SOL    HW2  999   2.057   0.236   1.109  0.0562  0.9924 -0.6600
  334SOL     OW 1000   0.922   1.169   1.269  0.2975 -0.2787 -0.6026
  334SOL    HW1 1001   0.827   1.138   1.274 -0.2509  1.1101 -1.5892
  334SOL    HW2 1002   0.938   1.214   1.181  1.6028  0.3397 -0.0760
  335SOL     OW 1003   1.376   0.717   0.992  0.3747  0.0868  0.0580
  335SOL    HW1 1004   1.433   0.636   0.986  0.3827  0.1809 -2.9885
  335SOL    HW2 1005   1.420   0.786   1.049  1.2808 -1.3321  1.1183
  336SOL     OW 1006   1.667   0.241   0.606 -0.8571  0.0294  0.1651
  336SOL    HW1 1007   1.676   0.337   0.630  0.7240 -0.0494 -0.0457
  336SOL    HW2 1008   1.570   0.218   0.598 -1.2550  1.6276  0.0815
  337SOL     OW 1009   2.438   0.752   0.264 -0.1665 -0.0110 -0.0850
  337SOL    HW1 1010   2.420   0.746   0.362  0.8599 -0.4498  0.0931
  337SOL    HW2 1011   2.395   0.674   0.218 -1.2518  0.5738 -0.0975
  338SOL     OW 1012   0.074   2.134   0.074 -0.1813  0.2123  0.2425
  338SOL    HW1 1013   0.160   2.084   0.084  0.0903  0.3715 -1.0461
  338SOL    HW2 1014   0.053   2.144  -0.024 -1.9037 -0.2399  0.5283
  339SOL     OW 1015   0.973   0.969   2.436  0.2567  0.3170 -0.0181
  339SOL    HW1 1016   0.914   1.043   2.469  0.6813  1.2020 -1.1992
  339SOL    HW2 1017   0.965   0.891   2.498 -0.5684  1.1653  0.9911
  340SOL     OW 1018   0.370   2.142   0.695 -0.3086 -0.0763  0.1311
  340SOL    HW1 1019   0.317   2.106   0.618  0.2679 -0.4302 -0.1076
  340SOL    HW2 1020   0.456   2.180   0.660 -0.6522  1.0182  0.4426
  341SOL     OW 1021   0.925   0.398   1.349 -0.1759 -0.4158  0.1035
  341SOL    HW1 1022   0.834   0.427   1.320  0.3876  0.4398 -0.8929
  341SOL    HW2 1023   0.922   0.303   1.381 -1.4766 -0.2738  0.4266
  342SOL     OW 1024   1.688   2.078   1.280  0.3631  0.7666 -0.0040
  342SOL    HW1 1025   1.771   2.131   1.264 -0.3391  1.6965 -0.6473
  342SOL    HW2 1026   1.623   2.133   1.331  0.0686  0.0990  0.3511
  343SOL     OW 1027   0.118   0.134   1.799 -0.5710  0.0689 -0.0506
  343SOL    HW1 1028   0.129   0.189   1.715  1.0604 -0.8132 -0.4566
  343SOL    HW2 1029   0.172   0.051   1.791 -2.7580 -1.5090  0.6836
  344SOL     OW 1030   2.012   1.533   0.213  0.0440  0.3817 -0.2297
  344SOL    HW1 1031   1.919   1.566   0.227 -0.8361 -2.4768  1.6422
  344SOL    HW2 1032   2.012   1.466   0.138  0.0825 -1.1917  1.1240
  345SOL     OW 1033   2.077   1.803   2.091 -0.1790  0.5565 -0.5719
  345SOL    HW1 1034   2.112   1.893   2.066 -0.3945  0.8323  0.1138
  345SOL    HW2 1035   2.130   1.766   2.167 -1.1822  0.8677  0.3101
  346SOL     OW 1036   2.353   0.470   1.542  0.0103  0.5976  0.7156
  346SOL    HW1 1037   2.373   0.432   1.452 -0.1398 -0.6142  1.1610
  346SOL    HW2 1038   2.400   0.415   1.612  0.7438  1.9731  1.3410
  347SOL     OW 1039   2.377   0.816   2.331  0.0410 -0.1464  0.0681
  347SOL    HW1 1040   2.360   0.862   2.243  1.5659 -2.7750 -1.7190
  347SOL    HW2 1041   2.291   0.781   2.367 -0.8541  2.2827  0.5175
  348SOL     OW 1042   2.223   1.270   0.384 -0.3592 -0.1689 -0.2594
  348SOL    HW1 1043   2.306   1.216   0.368  2.3951  2.9855  1.9822
  348SOL    HW2 1044   2.222   1.347   0.320 -0.8040  0.5742  0.6287
  349SOL     OW 1045   0.768   1.294   0.811 -0.5057 -0.5986 -0.5144
  349SOL    HW1 1046   0.843   1.290   0.876 -1.6910 -0.0287  0.9396
  349SOL    HW2 1047   0.794   1.352   0.734  0.2992  0.1714  0.3108
  350SOL     OW 1048   0.616   2.351   0.562  0.5130  0.5957 -0.3185
  350SOL    HW1 1049   0.636   2.273   0.621 -0.6486  0.6534  0.1710
  350SOL    HW2 1050   0.583   2.427   0.618 -1.7179  0.2827 -1.1409
  351SOL     OW 1051   0.157   1.246   2.183 -0.3408 -0.0530  0.1949
  351SOL    HW1 1052   0.074   1.302   2.174  1.1379  2.0843 -1.1769
  351SOL    HW2 1053   0.206   1.246   2.096  2.3537  0.8882  1.5996
  352SOL     OW 1054   0.666   1.107   1.294 -0.3269  0.1749  0.3099
  352SOL    HW1 1055   0.598   1.181   1.299 -0.3966  0.4408 -2.6055
  352SOL    HW2 1056   0.636   1.041   1.225  1.9083 -0.2037 -0.3547
  353SOL     OW 1057   1.271   1.063   1.497 -0.1895 -0.6229  0.2203
  353SOL    HW1 1058   1.280   0.974   1.541  0.7555 -0.9560 -0.5865
  353SOL    HW2 1059   1.351   1.119   1.519 -2.0172  1.1398  3.0101
  354SOL     OW 1060   0.870   0.631   1.532 -0.2749 -0.0980  0.1800
  354SOL    HW1 1061   0.932   0.571   1.481 -1.1353 -0.6456 -0.2255
  354SOL    HW2 1062   0.842   0.707   1.474  1.3949  1.1689  0.9136
  355SOL     OW 1063   0.583   0.741   0.502 -0.1799  0.3496  0.6105
  355SOL    HW1 1064   0.525   0.660   0.493  0.5947 -0.2040  0.5658
  355SOL    HW2 1065   0.550   0.812   0.440 -0.8624  0.0702  0.6459
  356SOL     OW 1066   1.531   1.278   2.081 -0.2337 -0.0643 -0.0724
  356SOL    HW1 1067   1.446   1.288   2.030  0.3980 -0.1072 -1.1683
  356SOL    HW2 1068   1.585   1.361   2.074  1.4195 -1.2353 -2.4658
  357SOL     OW 1069   1.695   0.879   0.896  0.0290  0.6526 -0.1813
  357SOL    HW1 1070   1.640   0.878   0.813 -2.1177  0.1044  1.1527
  357SOL    HW2 1071   1.636   0.896   0.975  1.7392 -0.2630  1.3826
  358SOL     OW 1072   0.206   1.572   1.238 -0.1330  0.1563  0.3863
  358SOL    HW1 1073   0.161   1.660   1.256  0.8512  0.1929  3.2939
  358SOL    HW2 1074   0.304   1.588   1.226 -0.1379 -0.4262 -0.4454
  359SOL     OW 1075   1.537   0.505   1.016 -0.1861 -0.5885 -0.2658
  359SOL    HW1 1076   1.539   0.427   1.077  2.6568 -0.7075 -0.3792
  359SOL    HW2 1077   1.545   0.474   0.921 -1.5648 -0.2516 -0.5128
  360SOL     OW 1078   0.465   0.923   0.323  0.4029 -0.5377  0.6019
  360SOL    HW1 1079   0.480   0.994   0.391  0.5037 -0.6459  0.6941
  360SOL    HW2 1080   0.392   0.951   0.260  1.2227  0.1567 -0.0665
  361SOL     OW 1081   0.833   1.962   0.938 -0.2783 -0.6691 -0.2603
  361SOL    HW1 1082   0.816   1.864   0.942 -0.4246 -0.6135  1.0667
  361SOL    HW2 1083   0.841   1.998   1.031  2.7829  0.0648 -0.7119
  362SOL     OW 1084   0.498   1.549   2.150 -0.1091 -0.7294 -0.0599
  362SOL    HW1 1085   0.447   1.633   2.169 -1.1166 -1.4275  0.3946
  362SOL    HW2 1086   0.523   1.505   2.237 -0.7452 -1.5789 -0.2941
  363SOL     OW 1087   1.339   1.895   1.254 -0.1994  0.3354  0.0472
  363SOL    HW1 1088   1.317   1.993   1.257 -1.1399  0.1394 -0.2168
  363SOL    HW2 1089   1.426   1.879   1.302  0.5249  1.4356 -0.8477
  364SOL     OW 1090   0.771   0.337   0.307 -0.1720 -0.2145 -0.3712
  364SOL    HW1 1091   0.871   0.336   0.309 -0.1721 -1.9618  0.1213
  364SOL    HW2 1092   0.736   0.309   0.396 -1.0826 -1.0775 -0.9845
  365SOL     OW 1093   1.053   1.356   2.310  0.2244 -0.5208 -0.1395
  365SOL    HW1 1094   1.112   1.435   2.299  0.5409 -0.5974  0.9541
  365SOL    HW2 1095   1.103   1.282   2.355  0.8768 -2.4468 -3.6553
  366SOL     OW 1096   1.886   0.032   0.211  0.1241 -0.0185  0.0279
  366SOL    HW1 1097   1.791   0.005   0.229  0.1479 -1.0039 -1.2173
  366SOL    HW2 1098   1.887   0.124   0.173 -0.1697  0.7173  1.6679
  367SOL     OW 1099   0.946   1.005   0.840  0.1320 -0.1204 -0.2791
  367SOL    HW1 1100   0.915   1.035   0.750  1.5762  0.3187 -0.6590
  367SOL    HW2 1101   0.901   0.919   0.864  0.0867 -0.4908 -1.6225
  368SOL     OW 1102   2.133   1.831   0.007  0.0455 -0.3079  0.4990
  368SOL    HW1 1103   2.185   1.913  -0.017  1.6095 -0.6390  2.4302
  368SOL    HW2 1104   2.163   1.754  -0.050 -0.9181  0.2846 -0.8312
  369SOL     OW 1105   2.216   2.351   0.624  0.4339  0.0567  0.6174
  369SOL    HW1 1106   2.218   2.267   0.569  2.5549 -0.6466  1.6420
  369SOL    HW2 1107   2.225   2.327   0.721 -0.9521  1.3938  1.1121
  370SOL     OW 1108   1.164   1.320   0.970  0.0335  0.5089  0.1931
  370SOL    HW1 1109   1.227   1.302   1.046  0.3435  1.2372  0.1213
  370SOL    HW2 1110   1.178   1.413   0.937  0.6257 -0.1027 -1.4191
  371SOL     OW 1111   0.325   2.470   1.700  0.3164  0.0811  0.3003
  371SOL    HW1 1112   0.370   2.559   1.698  0.9002 -0.1664  1.4340
  371SOL    HW2 1113   0.395   2.398   1.696 -0.1656 -0.3306 -0.8872
  372SOL     OW 1114   2.027   0.838   1.508  0.4103 -0.2835  0.2273
  372SOL    HW1 1115   1.988   0.779   1.437  0.4424  0.1245 -0.1346
  372SOL    HW2 1116   2.037   0.931   1.472 -0.7597  0.2303  1.1692
  373SOL     OW 1117   1.920   0.328   1.018  0.1073 -0.0369 -0.2573
  373SOL    HW1 1118   1.874   0.261   0.960 -1.8665  0.7600  0.3136
  373SOL    HW2 1119   1.904   0.420   0.982  0.4348  0.3279  0.5065
  374SOL     OW 1120   0.767   1.391   0.331  0.1541 -0.1490 -0.0109
  374SOL    HW1 1121   0.690   1.402   0.268 -0.5501  2.8688  1.2035
  374SOL    HW2 1122   0.844   1.448   0.301  0.6129 -0.3654  0.7083
  375SOL     OW 1123   1.533   0.453   1.546 -0.1065 -0.1015  0.5074
  375SOL    HW1 1124   1.520   0.455   1.645  0.9186 -0.6183  0.6641
  375SOL    HW2 1125   1.445   0.470   1.501 -0.8013 -0.8907  1.5012
  376SOL     OW 1126   0.892   2.355   0.582  0.0937  0.1965 -0.3160
  376SOL    HW1 1127   0.793   2.344   0.580  0.0553  0.5234 -0.2275
  376SOL    HW2 1128   0.935   2.275   0.540 -0.1191 -1.1237  1.8359
  377SOL     OW 1129   2.397   1.421   1.792 -0.7499  0.3162 -0.2467
  377SOL    HW1 1130   2.371   1.516   1.775  0.7819  1.0144  1.1001
  377SOL    HW2 1131   2.387   1.368   1.707  2.6153  2.7065 -2.3998
  378SOL     OW 1132   1.316   1.346   0.314 -0.2776 -0.3858  0.4422
  378SOL    HW1 1133   1.405   1.338   0.358  0.0879  0.6449 -0.0748
  378SOL    HW2 1134   1.300   1.265   0.258  0.8749 -0.0837 -0.3798
  379SOL     OW 1135   0.455   0.862   1.538  0.1860  0.3913 -0.4238
  379SOL    HW1 1136   0.368   0.870   1.490 -0.2914 -1.9787 -0.1015
  379SOL    HW2 1137   0.485   0.952   1.569 -0.8459  1.6085 -2.7475
  380SOL     OW 1138   1.593   1.056   1.930 -0.5727 -0.1556 -0.2012
  380SOL    HW1 1139   1.686   1.019   1.929 -0.6566 -0.4611 -2.2047
  380SOL    HW2 1140   1.589   1.135   1.991  0.5888 -1.0752  1.1189
  381SOL     OW 1141   0.710   2.349   0.026 -0.2506 -0.3356 -0.3748
  381SOL    HW1 1142   0.655   2.387  -0.048  0.4308 -1.3348 -1.4377
  381SOL    HW2 1143   0.803   2.385   0.021  0.4632 -2.1936 -1.5254
  382SOL     OW 1144   1.639   1.290   0.054  0.1874  0.1742  1.0474
  382SOL    HW1 1145   1.628   1.211   0.114 -1.8041 -0.2978  0.1625
  382SOL    HW2 1146   1.620   1.264  -0.040 -1.6403  1.8786  0.8700
  383SOL     OW 1147   1.028   1.606   0.315  0.6306 -0.0323 -0.6234
  383SOL    HW1 1148   1.046   1.704   0.324  0.4815  0.1107 -1.7605
  383SOL    HW2 1149   1.087   1.555   0.378  3.3875  0.5646 -2.5829
  384SOL     OW 1150   1.353   2.343   1.699 -0.2646  0.5224 -0.1637
  384SOL    HW1 1151   1.420   2.405   1.739 -0.5690  0.6961  0.0882
  384SOL    HW2 1152   1.292   2.393   1.638  0.0464  0.3012 -0.6556
  385SOL     OW 1153   1.797   0.386   1.682  0.1243  0.2340 -0.2222
  385SOL    HW1 1154   1.767   0.482   1.679 -0.9368 -0.0744 -3.8818
  385SOL    HW2 1155   1.870   0.372   1.615  0.2656 -1.5329  0.2627
  386SOL     OW 1156   2.419   0.060   2.025 -0.2246  0.3683 -0.6888
  386SOL    HW1 1157   2.491   0.081   1.959  2.5088 -1.4377  1.4645
  386SOL    HW2 1158   2.402   0.141   2.082 -0.2446  0.9629 -1.5263
  387SOL     OW 1159   1.428   1.643   2.089  0.4871  0.0800 -0.3764
  387SOL    HW1 1160   1.513   1.590   2.081  0.4965  0.0449 -0.0529
  387SOL    HW2 1161   1.447   1.731   2.133  0.3326  0.0155 -0.1793
  388SOL     OW 1162   1.800   2.144   0.866 -0.1711 -0.2687  0.5681
  388SOL    HW1 1163   1.763   2.198   0.942  0.4809 -0.4594  1.0294
  388SOL    HW2 1164   1.759   2.053   0.866 -0.1351 -0.2844  0.7182
  389SOL     OW 1165   1.034   2.260   2.219 -0.6531  0.0146 -0.5806
  389SOL    HW1 1166   1.123   2.250   2.174 -0.9246 -0.6256 -1.0027
  389SOL    HW2 1167   0.962   2.234   2.154 -1.1840  1.0658 -0.4192
  390SOL     OW 1168   2.456   1.134   0.292 -0.3366  0.0932 -0.0522
  390SOL    HW1 1169   2.476   1.069   0.365  0.3158  0.3708  0.0227
  390SOL    HW2 1170   2.480   1.094   0.204 -3.1919 -1.1293 -0.3910
  391SOL     OW 1171   2.368   1.768   0.880  0.4698 -0.2825 -0.2799
  391SOL    HW1 1172   2.321   1.707   0.945  0.6462 -0.2063 -0.0771
  391SOL    HW2 1173   2.343   1.742   0.787  0.2810 -0.4514 -0.1854
  392SOL     OW 1174   1.850   0.116   0.800  0.0966  0.0264  0.4017
  392SOL    HW1 1175   1.789   0.183   0.758 -0.6942  0.8452  2.7062
  392SOL    HW2 1176   1.901   0.068   0.729  1.7637  3.9892 -1.3624
  393SOL     OW 1177   1.470   0.807   1.839  0.1201  0.3977 -0.6049
  393SOL    HW1 1178   1.445   0.757   1.922  1.1127 -0.1981 -0.6455
  393SOL    HW2 1179   1.500   0.899   1.863 -0.5705  0.5793 -0.4112
  394SOL     OW 1180   2.180   1.057   2.234  0.1716  0.1432 -0.0694
  394SOL    HW1 1181   2.216   1.063   2.327  0.3263  0.2898 -0.1384
  394SOL    HW2 1182   2.126   1.138   2.214 -1.8779 -0.9423  0.7288
  395SOL     OW 1183   0.581   0.439   0.807  0.1753 -0.6284  0.5852
  395SOL    HW1 1184   0.659   0.497   0.784  0.1291  0.1459  2.2674
  395SOL    HW2 1185   0.496   0.488   0.786  0.1239 -1.1747 -0.5350
  396SOL     OW 1186   1.768   0.597   2.030 -0.6924 -0.4277 -0.1733
  396SOL    HW1 1187   1.863   0.568   2.017 -0.0843  0.9648  0.8630
  396SOL    HW2 1188   1.751   0.612   2.128 -1.3585  1.2967 -0.5215
  397SOL     OW 1189   0.853   2.395   1.394 -0.2529  0.2617  0.4311
  397SOL    HW1 1190   0.785   2.464   1.419 -0.4746 -0.6423  2.5358
  397SOL    HW2 1191   0.925   2.437   1.338  0.0445  2.4093  2.2970
  398SOL     OW 1192   0.045   2.156   1.818 -0.4794 -0.5197  0.7610
  398SOL    HW1 1193   0.015   2.225   1.752 -1.0306  0.0176  1.5663
  398SOL    HW2 1194   0.093   2.083   1.769 -0.7649 -0.0705 -0.2211
  399SOL     OW 1195   0.957   1.454   1.602 -0.0849 -0.2839 -0.7321
  399SOL    HW1 1196   1.032   1.389   1.584  0.1479 -0.0676 -0.5569
  399SOL    HW2 1197   0.963   1.484   1.698  0.7606  1.2015 -1.2180
  400SOL     OW 1198   0.223   1.123   1.098 -0.0737  0.4178 -0.2299
  400SOL    HW1 1199   0.236   1.030   1.062  2.9430  0.2201  1.0479
  400SOL    HW2 1200   0.239   1.189   1.025  0.7814 -0.0413 -0.4705
  401SOL     OW 1201   2.377   0.334   2.107 -0.1617  0.6451  0.6685
  401SOL    HW1 1202   2.297   0.341   2.047 -0.0837 -0.7243  0.3593
  401SOL    HW2 1203   2.382   0.414   2.166 -1.7296  0.8019  0.6288
  402SOL     OW 1204   1.114   0.160   0.192 -0.2467 -0.3513 -0.0408
  402SOL    HW1 1205   1.031   0.113   0.223 -1.2138  0.9937 -0.4975
  402SOL    HW2 1206   1.168   0.098   0.135 -1.3610 -0.9995 -0.4281
  403SOL     OW 1207   1.771   1.751   1.561  0.2804 -0.2133  0.0328
  403SOL    HW1 1208   1.819   1.719   1.643 -0.7404  0.9490  1.1308
  403SOL    HW2 1209   1.798   1.845   1.542 -0.6921  0.0580 -0.0145
  404SOL     OW 1210   2.244   1.554   1.096  0.2917 -0.5281 -0.0752
  404SOL    HW1 1211   2.209   1.547   1.189 -2.5401  0.3406 -0.9773
  404SOL    HW2 1212   2.230   1.467   1.048  2.9089 -1.4016  0.5897
  405SOL     OW 1213   0.384   0.645   0.791 -0.3498 -0.4229 -0.2739
  405SOL    HW1 1214   0.433   0.731   0.781 -0.7228 -0.1044  0.5346
  405SOL    HW2 1215   0.286   0.663   0.798 -0.3983 -0.8804  0.2856
  406SOL     OW 1216   2.405   1.179   1.282  0.0116 -0.9261  0.3195
  406SOL    HW1 1217   2.371   1.085   1.276  1.3871 -1.3901 -0.6678
  406SOL    HW2 1218   2.478   1.193   1.215  0.0570  0.7640  0.6692
  407SOL     OW 1219   1.389   0.722   2.084  0.3151  0.3445 -0.0247
  407SOL    HW1 1220   1.459   0.711   2.154  1.3571  1.1942 -0.8870
  407SOL    HW2 1221   1.331   0.801   2.107 -0.4968 -0.4702  0.7835
  408SOL     OW 1222   0.964   0.202   1.509  0.5637 -0.1847  0.0482
  408SOL    HW1 1223   0.924   0.184   1.599  1.4194 -0.7806  0.3237
  408SOL    HW2 1224   0.959   0.120   1.453  0.7272 -0.0469 -0.1695
  409SOL     OW 1225   0.690   0.891   0.167  0.1757 -0.3235 -0.0255
  409SOL    HW1 1226   0.706   0.792   0.171  1.2439 -0.1323  1.1643
  409SOL    HW2 1227   0.597   0.911   0.200  0.4912 -0.8245  1.2177
  410SOL     OW 1228   0.256   1.549   0.890 -0.2818  0.4257 -0.3651
  410SOL    HW1 1229   0.195   1.494   0.948 -2.4179  0.7140 -2.1935
  410SOL    HW2 1230   0.260   1.643   0.924 -2.0263  0.7513 -0.9733
  411SOL     OW 1231   1.061   1.976   0.727  0.6822 -0.1474  0.0080
  411SOL    HW1 1232   0.995   1.972   0.801  0.1222 -0.7388 -0.5128
  411SOL    HW2 1233   1.147   2.015   0.761  0.3062 -0.0378  0.8579
  412SOL     OW 1234   1.738   1.928   2.061  0.3352 -0.0928 -0.2335
  412SOL    HW1 1235   1.771   1.947   2.154  0.1469  0.7794 -0.3418
  412SOL    HW2 1236   1.644   1.895   2.066  0.0243  0.7780 -0.1645
  413SOL     OW 1237   0.796   0.623   0.796 -0.2788 -0.0641  0.3821
  413SOL    HW1 1238   0.870   0.585   0.740 -0.7731 -0.7334  0.1574
  413SOL    HW2 1239   0.793   0.575   0.884  0.6894  1.1941  1.1282
  414SOL     OW 1240   0.484   0.128   0.112 -0.3204  0.2416 -0.0445
  414SOL    HW1 1241   0.401   0.146   0.165  0.1999  0.2568  0.7933
  414SOL    HW2 1242   0.545   0.207   0.119  0.6908 -0.6122  1.1747
  415SOL     OW 1243   1.893   1.855   1.835  0.3610 -0.2743  0.0484
  415SOL    HW1 1244   1.832   1.892   1.905  0.4689 -0.3808  0.1991
  415SOL    HW2 1245   1.919   1.762   1.859  0.1488 -0.4237 -0.2952
  416SOL     OW 1246   1.755   0.606   2.296 -0.1004 -0.5235  0.4953
  416SOL    HW1 1247   1.763   0.509   2.322  1.3136 -0.1976  1.4063
  416SOL    HW2 1248   1.810   0.661   2.358 -0.1672  0.7806 -0.5610
  417SOL     OW 1249   0.893   1.925   0.505 -0.3725  0.1233  0.0558
  417SOL    HW1 1250   0.836   1.847   0.479 -1.4697  1.3267 -1.3052
  417SOL    HW2 1251   0.950   1.900   0.583 -1.2763 -1.7688  0.1626
  418SOL     OW 1252   1.243   1.109   0.199 -0.1343  0.1739 -0.0773
  418SOL    HW1 1253   1.168   1.125   0.134 -1.2281 -0.7495  0.9065
  418SOL    HW2 1254   1.313   1.052   0.156 -2.6554 -3.7859  0.6030
  419SOL     OW 1255   2.058   2.259   1.545  0.0089 -0.3561 -0.1300
  419SOL    HW1 1256   2.038   2.231   1.451  1.9375  0.8203 -0.9480
  419SOL    HW2 1257   2.044   2.181   1.606  0.0666 -1.5588 -1.5792
  420SOL     OW 1258   0.701   2.166   0.753  0.3130  0.1124  0.2123
  420SOL    HW1 1259   0.746   2.077   0.766  1.7393  0.6323 -0.9859
  420SOL    HW2 1260   0.682   2.207   0.843  0.3743 -1.0233  0.7613
  421SOL     OW 1261   1.260   1.853   0.459  0.7857 -0.4196 -0.2849
  421SOL    HW1 1262   1.225   1.847   0.366  1.5166  2.8781 -0.9114
  421SOL    HW2 1263   1.194   1.902   0.517  1.4237 -0.1803  0.2576
  422SOL     OW 1264   1.305   0.363   1.722 -0.8638  1.0293 -0.1109
  422SOL    HW1 1265   1.312   0.415   1.807 -1.9544 -0.5811  1.0395
  422SOL    HW2 1266   1.213   0.373   1.684 -0.1960  2.2476 -1.4879
  423SOL     OW 1267   1.785   2.164   1.804 -0.1889  0.2934 -0.5642
  423SOL    HW1 1268   1.864   2.108   1.780 -0.8194 -1.3570  0.9353
  423SOL    HW2 1269   1.789   2.187   1.902 -1.7031 -0.1176 -0.3693
  424SOL     OW 1270   2.293   1.828   0.226 -1.2541 -0.3992  0.3865
  424SOL    HW1 1271   2.369   1.765   0.209 -1.6893 -1.6346  2.5902
  424SOL    HW2 1272   2.231   1.826   0.148  0.3092 -0.3138 -0.9189
  425SOL     OW 1273   0.448   0.222   0.450  0.3256 -0.2486 -0.1826
  425SOL    HW1 1274   0.380   0.150   0.469  1.1187 -0.6055  1.4297
  425SOL    HW2 1275   0.536   0.179   0.429  1.0320  0.2164  1.6690
  426SOL     OW 1276   2.028   1.122   0.940  0.0187  0.0226  0.4762
  426SOL    HW1 1277   2.010   1.068   1.022  1.3437  0.8935  1.3735
  426SOL    HW2 1278   1.943   1.134   0.888 -1.2372  0.8936  2.6054
  427SOL     OW 1279   0.312   1.136   1.711  0.1896  0.2775 -0.3341
  427SOL    HW1 1280   0.410   1.132   1.731  0.2948  0.6498 -0.7636
  427SOL    HW2 1281   0.293   1.213   1.650 -0.0375 -1.1441 -2.1409
  428SOL     OW 1282   1.927   0.712   1.291  0.2737  0.3431 -0.2888
  428SOL    HW1 1283   1.830   0.688   1.285  0.4495 -1.2876  2.2362
  428SOL    HW2 1284   1.983   0.631   1.272  1.0959  0.7933  0.1390
  429SOL     OW 1285   1.541   1.628   1.769 -0.3290  0.2599 -0.0221
  429SOL    HW1 1286   1.527   1.534   1.736  0.2259  0.2131 -0.1355
  429SOL    HW2 1287   1.632   1.635   1.810 -0.4593  0.6936  0.1928
  430SOL     OW 1288   1.159   1.600   0.929  0.1772  0.2700  0.5484
  430SOL    HW1 1289   1.237   1.642   0.975  0.1745  1.1149 -0.1939
  430SOL    HW2 1290   1.078   1.609   0.987  0.2546  0.9863  0.5564
  431SOL     OW 1291   1.336   0.619   0.725 -0.0345 -0.3922  0.3961
  431SOL    HW1 1292   1.341   0.709   0.767  4.2408  0.9186 -2.3288
  431SOL    HW2 1293   1.276   0.623   0.645  1.4484  0.6079 -0.7104
  432SOL     OW 1294   1.114   0.788   0.910  0.9031 -0.3456 -0.1745
  432SOL    HW1 1295   1.199   0.776   0.962  0.3559  0.3388  0.9020
  432SOL    HW2 1296   1.088   0.885   0.912 -0.0947 -0.6106 -0.1850
  433SOL     OW 1297   0.461   2.389   1.161  0.2971 -0.7770 -0.0009
  433SOL    HW1 1298   0.465   2.330   1.241 -0.5561 -0.5453  0.2235
  433SOL    HW2 1299   0.372   2.380   1.117  0.1095  0.4364  0.1100
  434SOL     OW 1300   0.980   0.570   1.927 -0.3826 -0.7158  0.3148
  434SOL    HW1 1301   0.979   0.606   2.020 -2.0387  0.2074 -0.0163
  434SOL    HW2 1302   0.893   0.523   1.909 -1.0054  0.9971 -1.4506
  435SOL     OW 1303   2.432   1.995   1.175 -0.7351 -0.1194 -0.0251
  435SOL    HW1 1304   2.473   2.084   1.195 -1.3772 -0.1362  1.4271
  435SOL    HW2 1305   2.391   1.997   1.084  0.2599  0.6835 -0.4816
  436SOL     OW 1306   0.379   1.497   0.383 -0.6558 -0.3567 -0.2320
  436SOL    HW1 1307   0.294   1.450   0.361 -0.5935 -0.4891 -0.1911
  436SOL    HW2 1308   0.405   1.478   0.478 -0.6184 -0.2582 -0.2218
  437SOL     OW 1309   2.199   0.644   2.065  0.1572  0.5474  0.3836
  437SOL    HW1 1310   2.153   0.576   2.008  0.1573  0.4475  0.5011
  437SOL    HW2 1311   2.287   0.667   2.025 -0.1640  1.0308 -0.0496
  438SOL     OW 1312   1.048   1.027   1.752  0.5284  0.1009  0.4178
  438SOL    HW1 1313   1.071   0.931   1.766 -1.9708 -0.3898  1.6017
  438SOL    HW2 1314   1.132   1.079   1.737  2.0222 -2.0713  0.7638
  439SOL     OW 1315   1.721   0.392   1.376 -0.4835  0.2041 -0.4072
  439SOL    HW1 1316   1.649   0.411   1.442 -0.3041 -2.2029  0.5791
  439SOL    HW2 1317   1.809   0.388   1.422 -0.0921  0.3075 -1.1242
  440SOL     OW 1318   0.348   1.547   1.569  0.5078  0.3913  0.1800
  440SOL    HW1 1319   0.402   1.628   1.544 -1.3505  1.4839 -0.5620
  440SOL    HW2 1320   0.387   1.466   1.525  0.6164  1.3953 -1.6981
  441SOL     OW 1321   1.233   2.247   0.561 -1.1027 -0.6968 -0.2558
  441SOL    HW1 1322   1.163   2.207   0.502 -0.3409 -0.6598 -1.2132
  441SOL    HW2 1323   1.189   2.295   0.637 -2.1034 -0.7348 -0.7925
  442SOL     OW 1324   0.050   1.496   1.047 -0.1529 -0.0208 -0.9636
  442SOL    HW1 1325  -0.039   1.541   1.061  0.2644  1.0216 -1.6061
  442SOL    HW2 1326   0.105   1.507   1.130  1.0540  3.2733 -2.0337
  443SOL     OW 1327   1.692   1.927   0.284  0.8848 -0.1936  0.2444
  443SOL    HW1 1328   1.618   1.933   0.350  1.7416 -0.4880  1.2578
  443SOL    HW2 1329   1.681   1.999   0.215 -1.5164 -1.5287 -0.9065
  444SOL     OW 1330   1.879   1.978   2.305  0.1192 -0.0287 -0.4750
  444SOL    HW1 1331   1.938   2.049   2.266 -1.2466 -0.5060 -3.7349
  444SOL    HW2 1332   1.935   1.901   2.333  1.4376  1.4777  1.2730
  445SOL     OW 1333   0.089   1.511   1.502  0.2641 -0.1248  0.3067
  445SOL    HW1 1334   0.098   1.525   1.404 -0.2772 -0.4445  0.2050
  445SOL    HW2 1335   0.180   1.499   1.543  0.4538 -0.6829 -0.2622
  446SOL     OW 1336   0.586   1.078   1.715 -0.7869  0.2921  0.1776
  446SOL    HW1 1337   0.669   1.088   1.661 -0.8906  2.5360  0.3495
  446SOL    HW2 1338   0.606   1.094   1.812 -1.2120 -0.4336  0.3994
  447SOL     OW 1339   1.247   1.395   1.274  0.9892 -0.6468  0.3871
  447SOL    HW1 1340   1.203   1.329   1.334 -0.2087  1.1679  1.5962
  447SOL    HW2 1341   1.220   1.488   1.300  2.5958  0.3552 -1.2461
  448SOL     OW 1342   0.269   2.213   1.984  0.6794 -0.3038 -0.3639
  448SOL    HW1 1343   0.279   2.311   2.001  0.6331 -0.5190  1.0037
  448SOL    HW2 1344   0.205   2.199   1.908 -0.3307  0.6991  0.2681
  449SOL     OW 1345   0.051   0.340   0.434 -0.0346 -0.1404  0.1321
  449SOL    HW1 1346   0.038   0.349   0.533  0.7006  1.0567  0.1382
  449SOL    HW2 1347  -0.035   0.311   0.392 -0.1651 -1.4230  1.1852
  450SOL     OW 1348   1.798   1.571   1.864  0.2388  0.0893  0.1278
  450SOL    HW1 1349   1.781   1.492   1.804  0.7365 -0.3578  0.5647
  450SOL    HW2 1350   1.894   1.570   1.893  0.5589  1.4923 -0.7690
  451SOL     OW 1351   1.387   1.721   1.047  0.5919 -1.2378 -0.0840
  451SOL    HW1 1352   1.433   1.638   1.080  4.3135  1.0376  1.1160
  451SOL    HW2 1353   1.382   1.788   1.122 -1.3924  0.0383 -1.2712
  452SOL     OW 1354   1.937   1.140   0.076 -0.4075  0.1001 -0.3113
  452SOL    HW1 1355   1.930   1.150   0.175  1.0052 -3.4868  0.2740
  452SOL    HW2 1356   1.848   1.115   0.038 -0.8345  0.9847  0.0692
  453SOL     OW 1357   2.460   0.312   1.316  0.0034 -0.2380 -0.4738
  453SOL    HW1 1358   2.448   0.213   1.309  0.6381 -0.2072 -2.6499
  453SOL    HW2 1359   2.551   0.337   1.284 -0.3161  1.0930 -0.4115
  454SOL     OW 1360   1.063   0.724   2.142 -0.2424  0.3587 -0.3152
  454SOL    HW1 1361   0.966   0.749   2.140 -0.4116 -0.2476 -0.0355
  454SOL    HW2 1362   1.119   0.806   2.132 -0.7780  0.7930  0.1667
  455SOL     OW 1363   1.152   0.326   1.207 -0.7526  0.1299  0.4024
  455SOL    HW1 1364   1.173   0.389   1.132  0.1450  0.3835  0.8598
  455SOL    HW2 1365   1.077   0.364   1.262 -0.3864  0.6750  0.5289
  456SOL     OW 1366   2.079   2.241   0.876 -0.7385  0.1220  0.6198
  456SOL    HW1 1367   2.047   2.333   0.900 -1.6726  0.2385 -0.9574
  456SOL    HW2 1368   2.000   2.181   0.860 -0.1730 -1.3875  3.0253
  457SOL     OW 1369   0.384   2.016   1.141 -0.0049 -0.3390  0.1606
  457SOL    HW1 1370   0.444   1.940   1.118  0.8114  0.3902 -0.1592
  457SOL    HW2 1371   0.316   2.028   1.067  1.5522  0.9240 -1.1400
  458SOL     OW 1372   0.171   0.624   0.431  0.0070 -0.4494  0.2843
  458SOL    HW1 1373   0.104   0.550   0.424 -1.4125  0.6160  1.8298
  458SOL    HW2 1374   0.214   0.638   0.342 -0.6768 -2.1952 -0.3768
  459SOL     OW 1375   1.010   2.158   0.436  0.5554 -0.2270  0.1987
  459SOL    HW1 1376   0.953   2.210   0.372  0.8585  1.1541  0.9959
  459SOL    HW2 1377   0.976   2.065   0.443 -1.1536  0.3468  0.0801
  460SOL     OW 1378   2.151   0.582   2.334 -0.6799 -0.1364  0.3907
  460SOL    HW1 1379   2.091   0.502   2.334 -0.3090 -0.4152  0.1107
  460SOL    HW2 1380   2.174   0.607   2.240 -2.2043  1.3760  0.3757
  461SOL     OW 1381   0.778   0.135   2.328  0.1763  0.2873  0.0922
  461SOL    HW1 1382   0.780   0.235   2.322 -0.9229  0.2368 -1.2941
  461SOL    HW2 1383   0.868   0.103   2.359  1.1757  1.5918 -1.2842
  462SOL     OW 1384   2.467   0.746   1.444 -0.0077 -0.5302 -0.0126
  462SOL    HW1 1385   2.513   0.806   1.509 -0.5670  0.7233 -0.7204
  462SOL    HW2 1386   2.453   0.656   1.485  3.8781 -1.3377 -0.0563
  463SOL     OW 1387   1.150   1.875   2.103 -0.7753 -0.2006  0.4899
  463SOL    HW1 1388   1.157   1.837   2.011 -1.9743  0.3419  0.1391
  463SOL    HW2 1389   1.117   1.805   2.166  3.6731 -1.7489  1.4331
  464SOL     OW 1390   1.993   2.461   0.991 -0.0162 -0.2372  0.7265
  464SOL    HW1 1391   1.956   2.462   1.084  0.9149 -0.3653  1.1084
  464SOL    HW2 1392   1.943   2.527   0.935  0.8222  1.4762  1.9019
  465SOL     OW 1393   0.844   1.203   1.933  0.5851  0.1594 -0.3808
  465SOL    HW1 1394   0.873   1.166   1.845  0.3931  1.2502 -0.9312
  465SOL    HW2 1395   0.745   1.193   1.942  0.7735 -1.2023  0.3382
  466SOL     OW 1396   0.656   2.282   0.994  0.1297 -0.6028  0.4744
  466SOL    HW1 1397   0.589   2.299   1.066 -0.9744 -1.1083 -0.3858
  466SOL    HW2 1398   0.734   2.233   1.031 -0.5030 -1.0155  1.2942
  467SOL     OW 1399   1.248   1.719   1.894  0.2924 -0.0465  0.1007
  467SOL    HW1 1400   1.300   1.775   1.829  0.0665  0.7012  0.5558
  467SOL    HW2 1401   1.310   1.685   1.965  0.3538 -0.0287  0.0557
  468SOL     OW 1402   1.093   2.377   0.763  0.1026 -0.3721  0.5905
  468SOL    HW1 1403   1.004   2.397   0.721  0.7812  0.2999 -0.5511
  468SOL    HW2 1404   1.081   2.365   0.862 -0.9709  1.6483  0.7588
  469SOL     OW 1405   0.311   1.254   0.169 -0.2319 -0.1020 -0.2318
  469SOL    HW1 1406   0.268   1.266   0.080 -3.4206  0.5378  1.2388
  469SOL    HW2 1407   0.259   1.304   0.239  1.7546 -1.0654  2.1072
  470SOL     OW 1408   1.618   0.857   0.611  0.0328 -0.5163  0.4200
  470SOL    HW1 1409   1.695   0.918   0.595 -0.5392 -0.1015 -0.8629
  470SOL    HW2 1410   1.620   0.783   0.544 -0.1398 -1.0675  1.0079
  471SOL     OW 1411   0.035   0.395   1.763  0.7771 -0.1763 -0.3673
  471SOL    HW1 1412   0.004   0.476   1.812  1.3311 -0.3888  0.3529
  471SOL    HW2 1413   0.039   0.317   1.826 -1.1483 -1.1420 -1.3632
  472SOL     OW 1414   1.164   2.298   1.918 -0.8279 -0.2323  0.0832
  472SOL    HW1 1415   1.221   2.312   1.838  0.4316  0.4060  1.0518
  472SOL    HW2 1416   1.120   2.384   1.943  0.9728  0.3005  1.6487
  473SOL     OW 1417   0.038   0.598   2.289 -0.3423 -0.4608 -0.3105
  473SOL    HW1 1418   0.046   0.540   2.370 -0.7883 -0.5831 -0.3561
  473SOL    HW2 1419   0.015   0.691   2.317 -1.6466 -0.7476 -0.3539
  474SOL     OW 1420   2.361   0.682   0.530  0.7884  0.0536 -0.3243
  474SOL    HW1 1421   2.392   0.591   0.555 -0.3886 -0.5196 -0.8708
  474SOL    HW2 1422   2.262   0.688   0.542  0.8419  1.2345 -0.3704
  475SOL     OW 1423   0.762   0.274   0.558  0.0790 -0.3445  0.0295
  475SOL    HW1 1424   0.694   0.285   0.630 -1.9959 -2.4662 -1.4811
  475SOL    HW2 1425   0.850   0.250   0.599 -1.2407 -2.3942  1.8912
  476SOL     OW 1426   0.113   0.180   0.119  0.5525 -0.5703  0.6527
  476SOL    HW1 1427   0.115   0.098   0.176 -2.9549  0.3240  2.3804
  476SOL    HW2 1428   0.047   0.168   0.045 -0.1645  0.6883  1.0518
  477SOL     OW 1429   0.076   1.680   0.472 -0.5226 -0.0261  0.2136
  477SOL    HW1 1430   0.001   1.686   0.538  0.2577 -0.0307  1.1161
  477SOL    HW2 1431   0.156   1.727   0.508  0.0303 -0.3280 -0.5857
  478SOL     OW 1432   0.443   2.214   0.372 -0.0832  0.3984 -0.2069
  478SOL    HW1 1433   0.530   2.183   0.412  0.5413  0.9965 -1.0875
  478SOL    HW2 1434   0.439   2.188   0.276 -0.8988  0.3656 -0.1742
  479SOL     OW 1435   1.544   1.186   1.479 -0.5766  0.2373  0.4096
  479SOL    HW1 1436   1.617   1.134   1.523 -1.2732 -1.9606 -0.8510
  479SOL    HW2 1437   1.543   1.166   1.381 -2.8247  0.2150  0.3747
  480SOL     OW 1438   1.949   1.525   0.564  0.4156  0.3945  0.1934
  480SOL    HW1 1439   2.032   1.558   0.609  0.6524  0.0183  0.0436
  480SOL    HW2 1440   1.962   1.526   0.465  0.4310 -0.1527  0.1881
  481SOL     OW 1441   1.386   2.366   0.313 -0.2247 -0.3655 -0.1516
  481SOL    HW1 1442   1.315   2.328   0.372  0.0120  0.2603  0.5582
  481SOL    HW2 1443   1.472   2.370   0.364 -0.0340  0.2338 -0.5173
  482SOL     OW 1444   0.839   1.507   2.397 -0.4457  0.5038  0.2477
  482SOL    HW1 1445   0.904   1.441   2.359  0.2106  0.8105  0.8145
  482SOL    HW2 1446   0.747   1.467   2.396 -0.0725 -0.3917  0.4990
  483SOL     OW 1447   2.394   1.377   2.227 -0.0247 -0.2931 -0.3829
  483SOL    HW1 1448   2.370   1.354   2.321 -2.1753 -0.3219 -0.8995
  483SOL    HW2 1449   2.418   1.474   2.221  2.3274 -0.7365  0.5381
  484SOL     OW 1450   0.603   2.099   1.619  0.4319  0.2130  0.3213
  484SOL    HW1 1451   0.570   2.013   1.579  1.8126 -0.1479 -0.0912
  484SOL    HW2 1452   0.645   2.081   1.707  1.1906  0.3801  0.0010
  485SOL     OW 1453   0.612   2.358   1.684  0.1857  0.0194 -0.0511
  485SOL    HW1 1454   0.647   2.349   1.777 -1.6568 -0.8785  0.6079
  485SOL    HW2 1455   0.586   2.268   1.649 -1.8972  0.6282 -0.2590
  486SOL     OW 1456   1.256   1.522   2.270  0.0079  0.5112 -0.0014
  486SOL    HW1 1457   1.299   1.555   2.186  0.6494  1.2414  0.6012
  486SOL    HW2 1458   1.322   1.527   2.345  0.2528 -2.4030  0.0879
  487SOL     OW 1459   1.350   0.090   2.321 -0.3269 -0.5115  0.2154
  487SOL    HW1 1460   1.309   0.028   2.388  0.1749 -1.1107 -0.0188
  487SOL    HW2 1461   1.447   0.067   2.309  0.0842  0.8600  0.7405
  488SOL     OW 1462   0.598   1.945   2.116  0.1053 -0.6534  0.2104
  488SOL    HW1 1463   0.633   1.904   2.031 -0.0598 -0.0696 -0.1428
  488SOL    HW2 1464   0.669   1.944   2.185 -0.0226 -1.9445  0.3558
  489SOL     OW 1465   0.172   0.808   1.922 -0.0003  0.0119  0.1114
  489SOL    HW1 1466   0.207   0.875   1.988  0.8365 -0.8226  0.5376
  489SOL    HW2 1467   0.249   0.774   1.867 -0.6969  0.7985 -1.4143
  490SOL     OW 1468   1.181   1.654   1.305  0.1556 -0.1417  0.4437
  490SOL    HW1 1469   1.175   1.743   1.259  0.9554  0.3355  1.2378
  490SOL    HW2 1470   1.256   1.655   1.371  0.2680 -1.4612  0.3711
  491SOL     OW 1471   1.053   0.745   1.725  0.2602 -0.1409  0.0188
  491SOL    HW1 1472   1.056   0.687   1.807 -0.8252 -0.0627  0.1185
  491SOL    HW2 1473   0.982   0.713   1.664  0.3422  0.4658 -0.4008
  492SOL     OW 1474   0.581   0.185   1.924 -0.0039  0.5940  0.3062
  492SOL    HW1 1475   0.497   0.157   1.970 -0.1804 -0.7576 -0.7767
  492SOL    HW2 1476   0.656   0.125   1.951 -0.1062 -0.2093 -1.0988
  493SOL     OW 1477   2.292   0.330   0.922 -0.2948 -0.4223  0.4312
  493SOL    HW1 1478   2.298   0.400   0.993  1.8361  2.9579 -2.7026
  493SOL    HW2 1479   2.220   0.355   0.857  1.2134 -0.3915 -1.3329
  494SOL     OW 1480   1.278   0.539   1.471  0.0462  1.1282  1.5672
  494SOL    HW1 1481   1.297   0.627   1.515 -1.3819  1.8107  0.8930
  494SOL    HW2 1482   1.201   0.495   1.516 -1.2521  1.7037  0.0032
  495SOL     OW 1483   0.786   0.777   2.162 -0.1110 -0.0390  0.1350
  495SOL    HW1 1484   0.738   0.726   2.233 -0.3764 -0.4971 -0.3672
  495SOL    HW2 1485   0.807   0.869   2.196 -1.6939  0.3254  0.2453
  496SOL     OW 1486   1.165   0.153   0.593  0.1962  0.1687  0.5153
  496SOL    HW1 1487   1.121   0.138   0.505 -0.1880 -0.1908  0.7652
  496SOL    HW2 1488   1.164   0.068   0.646 -1.1115  0.7744  1.5413
  497SOL     OW 1489   1.314   2.186   1.240  0.1178 -0.5776 -0.1441
  497SOL    HW1 1490   1.392   2.231   1.283  0.2012  0.0723 -0.9576
  497SOL    HW2 1491   1.240   2.177   1.307 -0.4302  2.0564 -0.3071
  498SOL     OW 1492   1.644   1.908   0.678 -0.0888  0.2149  0.1901
  498SOL    HW1 1493   1.676   1.813   0.680  0.4676  0.4153  1.0012
  498SOL    HW2 1494   1.590   1.922   0.595 -0.4116 -0.8874  0.1865
  499SOL     OW 1495   1.574   1.847   1.356  0.1224 -0.2111 -0.3206
  499SOL    HW1 1496   1.623   1.931   1.332 -1.4451  1.0897  0.7826
  499SOL    HW2 1497   1.636   1.785   1.404  1.7636 -0.4743 -2.5712
  500SOL     OW 1498   1.060   0.389   0.350 -0.2091  0.0854  0.6109
  500SOL    HW1 1499   1.109   0.458   0.296  1.2492 -0.3847  1.2724
  500SOL    HW2 1500   1.089   0.298   0.322  0.3052 -0.1752  1.9123
  501SOL     OW 1501   1.635   0.539   0.699  0.8339 -0.0398  0.0715
  501SOL    HW1 1502   1.665   0.566   0.607  2.1888 -0.7899  0.2615
  501SOL    HW2 1503   1.558   0.596   0.727  1.3236  1.1748 -0.9508
  502SOL     OW 1504   0.376   0.707   1.759 -0.6236 -0.1448  0.2956
  502SOL    HW1 1505   0.396   0.758   1.676  0.9901 -0.8991  0.1859
  502SOL    HW2 1506   0.337   0.618   1.736  2.4263 -1.5424  0.1271
  503SOL     OW 1507   1.330   0.166   1.900  0.1620  0.5202  0.1645
  503SOL    HW1 1508   1.335   0.247   1.843 -1.1553  1.5626  1.4710
  503SOL    HW2 1509   1.280   0.186   1.984 -1.4161 -1.9925 -0.0667
  504SOL     OW 1510   2.002   0.412   1.506 -0.3938 -0.0861  0.2063
  504SOL    HW1 1511   2.079   0.389   1.565 -1.0112  1.3217  1.6264
  504SOL    HW2 1512   2.036   0.450   1.420  0.4931 -0.6303  0.3024
  505SOL     OW 1513   2.243   2.395   1.116  0.4252 -0.4686  0.1161
  505SOL    HW1 1514   2.272   2.309   1.074  0.8312 -1.0529  1.5094
  505SOL    HW2 1515   2.150   2.418   1.087  0.0421 -1.7544  0.2709
  506SOL     OW 1516   1.654   0.643   1.233  0.1668  0.1520 -0.1812
  506SOL    HW1 1517   1.604   0.610   1.153  0.4743  0.3835 -0.4706
  506SOL    HW2 1518   1.668   0.568   1.297 -0.7364  0.1275  0.0026
  507SOL     OW 1519   1.990   1.694   1.020  0.1543  0.3756  0.1087
  507SOL    HW1 1520   2.058   1.642   1.071  1.3622  0.7047 -1.1079
  507SOL    HW2 1521   1.982   1.785   1.059  1.0908  0.6345 -0.2696
  508SOL     OW 1522   0.731   1.900   0.012 -0.0016  0.4553 -0.1851
  508SOL    HW1 1523   0.654   1.963   0.023 -0.4994 -0.0445 -0.6869
  508SOL    HW2 1524   0.744   1.880  -0.085  1.8469  1.8329 -0.2641
  509SOL     OW 1525   0.582   0.903   1.964  0.2477  0.3043 -0.2037
  509SOL    HW1 1526   0.649   0.845   2.010 -0.2806 -0.0414  0.1436
  509SOL    HW2 1527   0.532   0.849   1.896  0.8767  0.7610 -1.0400
  510SOL     OW 1528   1.753   1.540   1.059 -0.2914  0.2251 -0.2645
  510SOL    HW1 1529   1.697   1.623   1.054  1.2772  1.2964 -1.0199
  510SOL    HW2 1530   1.849   1.565   1.052  0.2088 -1.7191 -1.0125
   2.47263   2.47263   2.47263
