SPC/E water — SIM-01 equilibrium validation
 1530
    1SOL     OW    1   0.630   0.504   2.473  0.0949  0.9232 -0.0061
    1SOL    HW1    2   0.707   0.475   2.416  0.1029 -1.2564  1.0346
    1SOL    HW2    3   0.658   0.508   2.568 -0.9221  0.6588  0.3167
    2SOL     OW    4   0.207   0.984   2.138  0.2495 -0.2713  0.3497
    2SOL    HW1    5   0.138   1.050   2.165 -1.2334  0.2908 -3.9924
    2SOL    HW2    6   0.186   0.895   2.180 -2.6843  0.0915 -0.1074
    3SOL     OW    7   1.096   1.697   1.531 -0.6709 -0.1341  0.6224
    3SOL    HW1    8   1.178   1.731   1.485 -0.0273 -0.8100  1.2335
    3SOL    HW2    9   1.090   1.738   1.622 -0.4459 -0.8520  0.9711
    4SOL     OW   10   0.244   1.411   2.283 -0.1541 -0.9856 -0.3633
    4SOL    HW1   11   0.311   1.424   2.356  0.0481 -3.5085  0.0062
    4SOL    HW2   12   0.290   1.377   2.201 -0.2661  2.4771 -2.0433
    5SOL     OW   13   1.721   2.020   1.725 -0.5684  0.1436  1.1156
    5SOL    HW1   14   1.794   2.085   1.706  0.0294 -0.5945  0.8105
    5SOL    HW2   15   1.666   2.005   1.642 -0.7525  0.3142  1.2058
    6SOL     OW   16   0.629   1.706   1.597  1.1048 -0.3875  0.2171
    6SOL    HW1   17   0.679   1.668   1.520 -0.0729 -0.8908 -0.3151
    6SOL    HW2   18   0.589   1.794   1.571  1.9770  0.1881  0.7540
    7SOL     OW   19   1.656   1.314   2.449 -0.4945  0.3222  1.0183
    7SOL    HW1   20   1.569   1.306   2.497 -0.3286  1.1765  1.4795
    7SOL    HW2   21   1.668   1.235   2.389 -1.0467 -0.3909  1.8157
    8SOL     OW   22   0.749   1.377   0.210  0.3626  0.1028 -0.2712
    8SOL    HW1   23   0.653   1.402   0.210  0.5529  0.8727 -0.1949
    8SOL    HW2   24   0.764   1.301   0.146 -0.4534 -0.7369  0.5022
    9SOL     OW   25   1.968   0.880   2.241 -0.4755  0.0602 -0.2872
    9SOL    HW1   26   2.019   0.795   2.236 -2.9375 -1.4775 -1.4277
    9SOL    HW2   27   1.879   0.864   2.285 -0.5715  2.3002  0.4746
   10SOL     OW   28   1.868   1.309   1.628  0.1249 -0.3810 -0.2796
   10SOL    HW1   29   1.777   1.312   1.669  0.3540  2.7983  0.2969
   10SOL    HW2   30   1.861   1.327   1.530  0.1038 -0.4753 -0.2952
   11SOL     OW   31   1.179   2.350   0.123  0.4008 -0.3420 -0.1298
   11SOL    HW1   32   1.124   2.281   0.076 -1.7603  1.1348  0.1239
   11SOL    HW2   33   1.153   2.441   0.092  0.5600  0.5584  2.1677
   12SOL     OW   34   2.427   2.372   2.381  0.1033 -0.0205 -0.1660
   12SOL    HW1   35   2.372   2.456   2.380 -1.3505 -0.9407 -0.8874
   12SOL    HW2   36   2.394   2.310   2.310  2.5889 -0.3331 -1.1559
   13SOL     OW   37   2.094   1.342   1.776  0.0135 -0.0549 -0.1273
   13SOL    HW1   38   2.021   1.327   1.709 -1.0802 -0.5246  1.1339
   13SOL    HW2   39   2.100   1.440   1.797 -1.8219 -0.2268  1.4257
   14SOL     OW   40   1.164   1.082   1.809  0.4935 -0.3796  0.0610
   14SOL    HW1   41   1.201   1.039   1.727  0.1673 -1.5031  0.4924
   14SOL    HW2   42   1.188   1.028   1.889 -2.6014 -1.6100  0.3210
   15SOL     OW   43   1.411   2.407   1.746  0.0058  0.2233 -0.2629
   15SOL    HW1   44   1.497   2.393   1.795 -0.4511  1.3234  0.9155
   15SOL    HW2   45   1.344   2.339   1.777  0.2328 -0.2126 -0.7000
   16SOL     OW   46   1.003   2.004   0.610 -0.0505 -0.0135 -0.3335
   16SOL    HW1   47   1.074   1.934   0.596  0.1453 -0.0287  0.6383
   16SOL    HW2   48   1.045   2.095   0.606 -0.5031  0.1438 -2.8138
   17SOL     OW   49   0.181   0.778   1.462 -0.2087  0.1711  1.0434
   17SOL    HW1   50   0.260   0.785   1.401  0.8065 -0.4882  2.2470
   17SOL    HW2   51   0.108   0.838   1.428 -0.2831 -1.3103 -1.6750
   18SOL     OW   52   0.907   1.806   2.397 -0.6032  0.9791  0.3070
   18SOL    HW1   53   0.930   1.747   2.320 -1.7652  0.0900  0.6055
   18SOL    HW2   54   0.989   1.826   2.450  0.0431  0.8115 -0.6120
   19SOL     OW   55   0.455   0.800   1.727  0.2961 -0.1730 -0.3283
   19SOL    HW1   56   0.485   0.780   1.821  1.1036 -1.6579 -0.8756
   19SOL    HW2   57   0.356   0.786   1.720  0.0846  0.7442  0.4738
   20SOL     OW   58   1.135   1.813   1.012  0.6045  0.8910 -0.4162
   20SOL    HW1   59   1.139   1.905   1.050 -0.8417  0.4303  0.9557
   20SOL    HW2   60   1.199   1.754   1.061 -0.3397  0.5858  0.4584
   21SOL     OW   61   2.134   1.059   2.333  0.2938  0.3126 -0.2080
   21SOL    HW1   62   2.211   1.027   2.278  0.1261 -1.1287  0.3689
   21SOL    HW2   63   2.057   0.996   2.324 -0.1091  0.6291  0.8304
   22SOL     OW   64   1.838   0.975   1.505 -0.3481  0.0496  0.1835
   22SOL    HW1   65   1.793   1.049   1.456 -0.5811  0.4355  0.9660
   22SOL    HW2   66   1.888   1.012   1.583  2.0684 -0.2386 -1.1142
   23SOL     OW   67   0.079   1.919   2.209  0.5210  0.4094  0.2234
   23SOL    HW1   68   0.014   1.930   2.285  2.8602  0.3613  2.3492
   23SOL    HW2   69   0.153   1.858   2.237  1.6939  0.6937 -2.0195
   24SOL     OW   70   1.298   1.276   1.489 -0.3918  0.0500  0.2973
   24SOL    HW1   71   1.285   1.297   1.586 -0.4865  1.3075  0.0308
   24SOL    HW2   72   1.302   1.362   1.437  0.3277 -0.5922 -0.7257
   25SOL     OW   73   0.063   0.736   2.216  0.1678 -0.5123 -0.1989
   25SOL    HW1   74   0.047   0.694   2.126  1.2975  0.6466 -0.9604
   25SOL    HW2   75   0.062   0.664   2.286 -1.2295 -1.3797 -1.0375
   26SOL     OW   76   0.722   1.973   1.810 -0.5901  0.8054 -0.2925
   26SOL    HW1   77   0.679   1.889   1.846 -0.6443  0.5987 -0.8346
   26SOL    HW2   78   0.710   1.977   1.711  2.8304 -0.5695 -0.9050
   27SOL     OW   79   1.295   1.221   0.840  0.6687 -0.2404 -0.6278
   27SOL    HW1   80   1.374   1.189   0.788  1.3148  0.7516 -0.2712
   27SOL    HW2   81   1.260   1.305   0.800 -0.0462 -0.5225 -0.6147
   28SOL     OW   82   1.652   0.699   0.471  0.2049 -0.3636  0.5718
   28SOL    HW1   83   1.624   0.634   0.400  0.5254 -1.3533  1.3232
   28SOL    HW2   84   1.683   0.648   0.551  2.9199  0.6372  0.2695
   29SOL     OW   85   1.454   0.306   1.046 -0.3503  0.4037  0.3220
   29SOL    HW1   86   1.488   0.255   1.126 -0.5232 -0.2377 -0.0080
   29SOL    HW2   87   1.438   0.243   0.970 -1.4346  0.8119  0.1875
   30SOL     OW   88   0.863   0.345   2.340  0.2053 -0.2670 -0.4970
   30SOL    HW1   89   0.807   0.262   2.336  0.5500 -0.5218 -0.1636
   30SOL    HW2   90   0.889   0.372   2.247 -0.6394 -0.0267 -0.6696
   31SOL     OW   91   2.420   1.630   0.630  0.3467 -0.2087 -0.0096
   31SOL    HW1   92   2.459   1.561   0.569 -1.0072 -1.0509  0.0362
   31SOL    HW2   93   2.322   1.638   0.612  0.1285  0.3194  1.3120
   32SOL     OW   94   1.035   0.815   1.057  0.0198 -0.3146  0.3634
   32SOL    HW1   95   0.972   0.857   1.123 -2.8939 -3.0495 -0.4221
   32SOL    HW2   96   1.117   0.785   1.105 -0.1335  1.5148  1.8770
   33SOL     OW   97   1.229   1.815   0.539 -0.3512 -0.1904  0.1603
   33SOL    HW1   98   1.302   1.833   0.605 -0.1147 -0.5756  0.0091
   33SOL    HW2   99   1.225   1.717   0.521  1.2606  0.1057 -2.2778
   34SOL     OW  100   1.837   1.042   0.011  0.6731 -0.1939  0.2891
   34SOL    HW1  101   1.920   1.095  -0.008 -0.7724  1.8585 -0.5761
   34SOL    HW2  102   1.839   1.011   0.107  1.0676  2.4282  1.2056
   35SOL     OW  103   0.363   0.839   1.279  0.3656 -0.3315 -0.0030
   35SOL    HW1  104   0.446   0.859   1.331  0.8504 -2.0805 -0.0319
   35SOL    HW2  105   0.344   0.914   1.217  2.9839 -0.6252 -1.3166
   36SOL     OW  106   0.645   2.320   2.056 -0.0253  0.1350 -0.4366
   36SOL    HW1  107   0.741   2.314   2.083  0.0343 -0.8117 -0.8218
   36SOL    HW2  108   0.622   2.242   1.999 -0.3927  1.5867 -2.3827
   37SOL     OW  109   2.191   0.857   1.980  0.1931  0.1512  0.4252
   37SOL    HW1  110   2.135   0.939   1.976 -0.0306 -0.0133  0.1776
   37SOL    HW2  111   2.258   0.866   2.054 -2.0692 -0.8660  2.7324
   38SOL     OW  112   0.733   1.751   1.981 -0.0824 -0.2332  0.0654
   38SOL    HW1  113   0.720   1.818   2.054  2.0996 -0.0227  0.3128
   38SOL    HW2  114   0.675   1.671   1.999  0.0032  0.0456  1.7317
   39SOL     OW  115   1.226   1.082   1.083 -0.0744 -0.2688  0.3285
   39SOL    HW1  116   1.161   1.022   1.035 -2.7665  2.1412  0.7158
   39SOL    HW2  117   1.270   1.143   1.016  0.3877 -0.6093  0.3120
   40SOL     OW  118   1.951   1.765   2.291 -0.3420 -0.0018 -0.5611
   40SOL    HW1  119   1.977   1.852   2.250  1.6463 -0.1903  0.1727
   40SOL    HW2  120   1.861   1.773   2.334  0.6776  2.3770  1.3829
   41SOL     OW  121   0.088   1.679   0.273  0.6745 -0.3559 -0.2397
   41SOL    HW1  122   0.125   1.715   0.187  0.3186  2.2327  0.6076
   41SOL    HW2  123  -0.008   1.707   0.281  1.5633  2.3421  2.4296
   42SOL     OW  124   2.431   2.420   1.753  0.7289 -0.7753 -0.3260
   42SOL    HW1  125   2.486   2.454   1.829  1.3388 -0.3395 -0.9534
   42SOL    HW2  126   2.491   2.388   1.680  0.1510 -0.6514 -0.8620
   43SOL     OW  127   0.559   1.064   1.786  0.0939  0.1193 -0.3365
   43SOL    HW1  128   0.530   0.975   1.752 -0.0038  0.4466 -1.1372
   43SOL    HW2  129   0.481   1.110   1.829  0.0221  0.0324 -0.3734
   44SOL     OW  130   0.365   1.966   1.906  0.3374  0.0765 -0.0879
   44SOL    HW1  131   0.306   2.006   1.977 -0.0350 -1.4822  0.5295
   44SOL    HW2  132   0.419   2.039   1.862 -1.7638  1.5116 -0.4361
   45SOL     OW  133   1.893   0.142   2.260 -0.0099  0.2323  0.6757
   45SOL    HW1  134   1.880   0.045   2.277 -3.9584  0.5241  0.2730
   45SOL    HW2  135   1.912   0.157   2.163  2.0581 -0.1326  0.9744
   46SOL     OW  136   2.179   1.463   1.339 -0.2910  0.1231 -0.4896
   46SOL    HW1  137   2.171   1.404   1.419  0.5736 -1.2384 -1.3799
   46SOL    HW2  138   2.090   1.505   1.319 -0.0472  2.5263  2.6286
   47SOL     OW  139   1.716   0.151   0.206 -0.1571  0.1326 -0.2097
   47SOL    HW1  140   1.642   0.125   0.144 -0.2611  1.1084 -0.5086
   47SOL    HW2  141   1.684   0.223   0.267 -0.0954 -0.9062  1.0855
   48SOL     OW  142   0.324   1.538   1.064 -0.2091 -0.3234  1.0354
   48SOL    HW1  143   0.226   1.526   1.047 -0.3641  2.4224 -0.5194
   48SOL    HW2  144   0.337   1.586   1.150 -0.3587  0.8054  0.4453
   49SOL     OW  145   0.403   0.320   0.202 -0.1502  0.2038  0.6395
   49SOL    HW1  146   0.411   0.405   0.254  0.0759  0.6280 -0.0849
   49SOL    HW2  147   0.471   0.318   0.129 -2.3539  0.9993 -1.5916
   50SOL     OW  148   2.336   0.926   2.183 -0.0222 -0.1600  0.0625
   50SOL    HW1  149   2.393   1.000   2.148  0.2462 -1.7268 -3.1944
   50SOL    HW2  150   2.393   0.845   2.201 -0.7474 -0.6531  0.1978
   51SOL     OW  151   0.073   1.293   1.430  0.5989  0.3300  0.0104
   51SOL    HW1  152   0.033   1.384   1.414  0.2912  0.3337  0.7462
   51SOL    HW2  153   0.007   1.223   1.404 -0.9805  0.3159  3.4870
   52SOL     OW  154   0.338   0.513   1.151 -0.4072 -0.8581  0.1937
   52SOL    HW1  155   0.352   0.610   1.169 -1.9082 -0.5774 -0.0155
   52SOL    HW2  156   0.388   0.458   1.217  0.5707  0.0549  0.2222
   53SOL     OW  157   1.825   0.654   2.021 -0.6971 -0.8165 -0.1749
   53SOL    HW1  158   1.920   0.654   2.053 -0.4095  0.1436 -0.9804
   53SOL    HW2  159   1.766   0.693   2.092 -0.1623  0.6733 -0.5161
   54SOL     OW  160   0.868   0.170   2.033  0.0748 -0.4515 -0.4334
   54SOL    HW1  161   0.883   0.094   1.969 -0.9084 -1.1446  0.1296
   54SOL    HW2  162   0.875   0.257   1.984  2.1407 -0.8226 -0.9183
   55SOL     OW  163   2.063   2.446   0.648  0.2762  0.6066 -0.0504
   55SOL    HW1  164   2.153   2.471   0.611  1.2592 -1.2056  0.9782
   55SOL    HW2  165   2.073   2.413   0.742 -1.6569  1.5017  0.5221
   56SOL     OW  166   1.704   2.391   1.524 -0.5964  0.3226  0.0491
   56SOL    HW1  167   1.618   2.409   1.476 -1.4818  1.3361  1.8895
   56SOL    HW2  168   1.750   2.477   1.544  0.1104 -0.1196  0.3872
   57SOL     OW  169   1.482   2.140   0.452 -0.0495 -0.1683  0.4027
   57SOL    HW1  170   1.553   2.072   0.435 -0.5311 -0.1352 -2.2056
   57SOL    HW2  171   1.406   2.125   0.390  0.0172  2.9875 -0.6434
   58SOL     OW  172   1.921   0.597   1.205 -0.6161 -0.1855 -0.2811
   58SOL    HW1  173   1.965   0.572   1.291 -1.3298  1.0175  0.4449
   58SOL    HW2  174   1.826   0.567   1.205 -0.8587  0.5730 -0.2995
   59SOL     OW  175   2.073   2.206   0.879  0.1112  0.4784 -0.2828
   59SOL    HW1  176   2.129   2.142   0.826  0.2874  1.5133 -1.3930
   59SOL    HW2  177   2.129   2.249   0.949 -0.2011 -1.1460  1.0171
   60SOL     OW  178   0.711   1.955   0.562  0.0223  0.1664 -0.0451
   60SOL    HW1  179   0.642   2.026   0.552 -0.1836  0.2275  1.5666
   60SOL    HW2  180   0.798   1.996   0.588  0.1369 -0.0998 -0.0024
   61SOL     OW  181   1.704   1.933   0.432 -0.0799 -0.3028 -0.3713
   61SOL    HW1  182   1.795   1.969   0.411 -1.2158  1.6805 -2.3474
   61SOL    HW2  183   1.671   1.879   0.355 -1.0856  0.1280 -0.2600
   62SOL     OW  184   1.854   0.398   0.892 -0.0581  0.1759 -0.7050
   62SOL    HW1  185   1.913   0.462   0.941 -0.7980  0.0541  0.3892
   62SOL    HW2  186   1.865   0.307   0.932 -0.1822 -0.0632 -1.2120
   63SOL     OW  187   1.711   0.762   0.095  0.3807  0.2284  0.3181
   63SOL    HW1  188   1.741   0.844   0.144 -0.5942  0.2795  0.8520
   63SOL    HW2  189   1.789   0.701   0.081  0.8072  0.5179  1.3501
   64SOL     OW  190   0.080   0.790   0.636  0.0235 -0.7102 -0.1423
   64SOL    HW1  191   0.070   0.799   0.735  0.8403  0.5447 -0.1528
   64SOL    HW2  192   0.020   0.856   0.590  1.9943  1.0252 -0.3684
   65SOL     OW  193   2.105   0.782   1.018  0.2653  0.2055 -0.4675
   65SOL    HW1  194   2.105   0.722   1.098 -1.2028 -1.4205 -1.6352
   65SOL    HW2  195   2.100   0.877   1.049  0.3627 -0.3402  1.3793
   66SOL     OW  196   0.104   1.479   0.449 -0.8421 -0.1106  0.7588
   66SOL    HW1  197   0.109   1.542   0.372  0.9092 -1.3837 -0.2555
   66SOL    HW2  198   0.190   1.481   0.500 -1.5887 -0.0688  2.0566
   67SOL     OW  199   0.576   2.181   0.552 -0.2325  0.1445 -0.1881
   67SOL    HW1  200   0.590   2.252   0.484 -2.1434 -1.1911 -2.1076
   67SOL    HW2  201   0.556   2.223   0.641  0.8177  1.9239 -0.7470
   68SOL     OW  202   0.293   1.725   0.807 -0.1955 -0.2368  0.1085
   68SOL    HW1  203   0.315   1.674   0.890 -0.0424  0.9101  0.7866
   68SOL    HW2  204   0.310   1.822   0.822  2.0319 -0.2163 -1.9945
   69SOL     OW  205   1.948   1.935   0.188 -0.4731 -0.1276  1.0205
   69SOL    HW1  206   1.851   1.918   0.205 -0.5175 -0.1013  0.8005
   69SOL    HW2  207   2.001   1.907   0.267 -0.6949  0.1992  1.2876
   70SOL     OW  208   1.023   2.131   0.046 -0.2749  0.1587 -0.0772
   70SOL    HW1  209   1.063   2.040   0.041  0.2045  0.3210  0.6211
   70SOL    HW2  210   0.996   2.150   0.140  0.0694  0.9146 -0.1215
   71SOL     OW  211   0.416   1.682   2.001 -0.0967  0.4322  0.9821
   71SOL    HW1  212   0.489   1.655   1.938  0.8661  1.6504  1.5330
   71SOL    HW2  213   0.395   1.779   1.987 -0.0736  0.6440  2.3261
   72SOL     OW  214   0.689   2.410   1.737  0.0402  0.1172  0.0335
   72SOL    HW1  215   0.686   2.410   1.637 -0.0434 -1.4860  0.0051
   72SOL    HW2  216   0.643   2.491   1.771 -0.2480  0.5134 -1.2246
   73SOL     OW  217   1.524   1.327   1.045  0.3348 -0.4378 -0.1487
   73SOL    HW1  218   1.427   1.348   1.053  0.6017  0.6534  0.5111
   73SOL    HW2  219   1.536   1.230   1.024 -0.9058 -0.4224 -0.9958
   74SOL     OW  220   1.653   0.230   2.301 -0.0368 -0.2017 -0.4979
   74SOL    HW1  221   1.623   0.186   2.386  0.1248  0.2487 -0.2040
   74SOL    HW2  222   1.752   0.220   2.292  0.0290  0.2665 -0.3303
   75SOL     OW  223   1.871   2.211   1.654  0.4150  0.3888 -0.4972
   75SOL    HW1  224   1.960   2.245   1.682  0.2890  0.2033  0.1514
   75SOL    HW2  225   1.821   2.283   1.606  0.6529  0.7002 -0.2819
   76SOL     OW  226   1.948   1.646   1.758  0.3909  0.7829  0.3755
   76SOL    HW1  227   1.884   1.653   1.681  0.0740  0.4100  0.5976
   76SOL    HW2  228   1.926   1.716   1.826 -0.6906 -0.2082  1.0961
   77SOL     OW  229   0.728   0.022   1.173  0.6207  0.1929  0.7569
   77SOL    HW1  230   0.766  -0.017   1.089 -1.2200  0.9266 -0.4941
   77SOL    HW2  231   0.735   0.122   1.169  2.1344  0.2052  2.3455
   78SOL     OW  232   0.133   2.332   1.579  0.0128 -0.4334  0.1334
   78SOL    HW1  233   0.211   2.354   1.637  2.4167  1.8389 -3.5121
   78SOL    HW2  234   0.124   2.232   1.571  2.0828 -0.7557  1.2529
   79SOL     OW  235   0.468   0.987   0.336 -0.6481 -0.1534 -0.3568
   79SOL    HW1  236   0.493   0.947   0.248 -1.4646 -1.2852 -0.1062
   79SOL    HW2  237   0.391   1.050   0.324 -1.9122 -1.6064 -0.2652
   80SOL     OW  238   0.751   0.080   2.273  0.2954 -0.2305 -0.2931
   80SOL    HW1  239   0.659   0.056   2.244  0.3582  0.9103 -1.5140
   80SOL    HW2  240   0.805   0.109   2.194  0.3706  3.3584  0.8959
   81SOL     OW  241   0.020   1.711   0.869 -0.3810 -0.2830  0.1832
   81SOL    HW1  242   0.005   1.692   0.772 -1.1974 -0.7620  0.3965
   81SOL    HW2  243   0.037   1.625   0.918  1.1164  0.0523  0.2957
   82SOL     OW  244   1.953   0.726   0.374 -0.6228 -0.0523  0.6988
   82SOL    HW1  245   1.996   0.638   0.355  1.7459  1.0233  0.7527
   82SOL    HW2  246   1.883   0.715   0.445 -0.2134 -1.8233  0.8625
   83SOL     OW  247   1.778   0.670   1.486 -0.2523 -0.0770  0.4428
   83SOL    HW1  248   1.784   0.738   1.412 -1.2546  0.6178  0.9815
   83SOL    HW2  249   1.843   0.694   1.558  1.0141 -0.9780 -0.3602
   84SOL     OW  250   2.211   1.637   1.606  0.0826 -0.3362  0.3598
   84SOL    HW1  251   2.161   1.594   1.531 -1.8985 -2.6705  2.8245
   84SOL    HW2  252   2.180   1.732   1.617 -0.6026 -0.4042 -0.8834
   85SOL     OW  253   1.379   0.713   0.944 -0.1583  0.4446  0.0114
   85SOL    HW1  254   1.345   0.689   1.035 -0.3559  0.6446 -0.0094
   85SOL    HW2  255   1.472   0.677   0.933  0.2272  1.2291  0.6347
   86SOL     OW  256   1.161   1.333   0.141 -0.1946  0.3372 -0.5508
   86SOL    HW1  257   1.121   1.241   0.135  0.7556 -0.3190  1.7417
   86SOL    HW2  258   1.107   1.387   0.206 -0.6760  1.3977 -1.8051
   87SOL     OW  259   0.476   0.009   1.268 -0.1866 -0.7574  0.6410
   87SOL    HW1  260   0.563   0.009   1.218 -0.5844  2.0099 -0.1781
   87SOL    HW2  261   0.495   0.027   1.365  0.2120 -1.0358  0.6200
   88SOL     OW  262   2.361   1.568   1.841  0.2250 -0.5705 -0.0910
   88SOL    HW1  263   2.398   1.652   1.880  0.0450 -1.0116  1.0672
   88SOL    HW2  264   2.309   1.590   1.758  1.3353  0.2828 -0.5972
   89SOL     OW  265   0.866   0.700   0.851 -0.0811 -0.1950 -0.0690
   89SOL    HW1  266   0.921   0.742   0.923 -0.1861 -1.5580  0.8510
   89SOL    HW2  267   0.780   0.751   0.841  0.2890  0.4963  0.1932
   90SOL     OW  268   2.259   2.196   1.702 -0.7798 -0.1707  0.1729
   90SOL    HW1  269   2.312   2.268   1.747  0.3693 -0.8785 -0.0114
   90SOL    HW2  270   2.279   2.195   1.604 -2.6276  0.8035 -0.2719
   91SOL     OW  271   1.540   0.493   0.282 -0.1870 -0.6834  0.4505
   91SOL    HW1  272   1.461   0.530   0.332  0.2161 -1.7260  1.9533
   91SOL    HW2  273   1.511   0.414   0.228 -0.2266 -0.9738  0.8841
   92SOL     OW  274   0.756   0.976   1.954  0.3245  0.1123 -0.1723
   92SOL    HW1  275   0.702   1.018   1.882 -0.1919 -0.0081  0.1442
   92SOL    HW2  276   0.807   0.898   1.916 -1.7688 -1.4547  0.0690
   93SOL     OW  277   1.470   2.082   1.264  0.1129  0.2858 -0.6646
   93SOL    HW1  278   1.406   2.076   1.341  0.2667  1.0180 -0.4797
   93SOL    HW2  279   1.422   2.057   1.180  0.3638 -2.2618 -0.1489
   94SOL     OW  280   1.717   1.573   0.548  0.2724 -0.4661  0.0517
   94SOL    HW1  281   1.788   1.566   0.477  0.9112 -3.1586  0.8502
   94SOL    HW2  282   1.656   1.494   0.542 -2.6313  1.6657 -0.4627
   95SOL     OW  283   1.876   1.794   0.651 -0.5027 -0.3097 -0.3346
   95SOL    HW1  284   1.805   1.729   0.623  2.3153 -2.0607 -4.4037
   95SOL    HW2  285   1.900   1.853   0.574  1.8801  0.7552  1.1033
   96SOL     OW  286   2.331   1.421   0.370  0.7019 -0.7021  0.3124
   96SOL    HW1  287   2.295   1.328   0.376  1.3427 -0.8672  2.7112
   96SOL    HW2  288   2.426   1.421   0.402  0.6719  0.7881  0.4490
   97SOL     OW  289   2.136   0.597   1.904 -0.1639  0.8131 -0.4065
   97SOL    HW1  290   2.148   0.696   1.915  1.5121  0.5756  0.0603
   97SOL    HW2  291   2.216   0.558   1.859 -0.8062 -0.3556 -0.5834
   98SOL     OW  292   2.225   2.046   0.706  0.0238  0.0597 -0.3125
   98SOL    HW1  293   2.161   2.027   0.632  0.8968  1.0827 -1.3569
   98SOL    HW2  294   2.309   2.084   0.669  1.9775 -2.7800  0.8103
   99SOL     OW  295   0.740   0.566   2.187 -0.1674 -0.6341 -0.1519
   99SOL    HW1  296   0.832   0.604   2.198 -0.7100  0.9494 -0.7257
   99SOL    HW2  297   0.672   0.639   2.198 -1.2971 -1.5006 -1.0564
  100SOL     OW  298   0.128   1.900   1.052  0.1184  0.1907 -0.1256
  100SOL    HW1  299   0.118   1.814   1.001 -0.1948 -1.1401  2.0472
  100SOL    HW2  300   0.175   1.967   0.995  1.9513 -1.9664 -1.3080
  101SOL     OW  301   1.344   0.949   2.043 -0.0808 -0.2471 -0.0026
  101SOL    HW1  302   1.350   0.969   2.140 -1.0933  2.2529 -0.3913
  101SOL    HW2  303   1.414   1.000   1.993  1.0684 -2.2470 -0.5509
  102SOL     OW  304   1.267   0.306   0.318 -0.5446  0.0536  0.0620
  102SOL    HW1  305   1.233   0.220   0.355  0.4031 -0.1707  0.4658
  102SOL    HW2  306   1.315   0.356   0.390 -0.9272  0.8337 -0.2174
  103SOL     OW  307   2.343   0.338   0.319 -0.1535  0.1057 -0.1630
  103SOL    HW1  308   2.318   0.246   0.290  2.0871 -1.0132  1.0896
  103SOL    HW2  309   2.429   0.364   0.275 -0.5772  1.4629 -0.2215
  104SOL     OW  310   1.257   2.446   0.648 -0.4232  0.8150  0.0143
  104SOL    HW1  311   1.324   2.496   0.704 -1.9947  0.7692  2.0723
  104SOL    HW2  312   1.212   2.510   0.586  0.1169  1.2282  0.0370
  105SOL     OW  313   1.823   1.120   0.811 -0.4559 -0.0888 -0.1538
  105SOL    HW1  314   1.832   1.198   0.748  0.3696 -0.2698 -0.2650
  105SOL    HW2  315   1.876   1.043   0.776  0.4790 -0.0159  1.0530
  106SOL     OW  316   0.877   1.370   2.311  0.0390 -0.2979  0.0305
  106SOL    HW1  317   0.828   1.317   2.380 -2.8563 -0.8040 -2.2185
  106SOL    HW2  318   0.919   1.308   2.244 -1.3055  0.1274 -1.2715
  107SOL     OW  319   2.084   1.335   2.399 -0.3857 -0.0905 -0.4073
  107SOL    HW1  320   2.115   1.245   2.367  1.8362  0.2664  0.5666
  107SOL    HW2  321   2.064   1.394   2.321 -0.8653 -1.0854 -1.0602
  108SOL     OW  322   1.335   1.692   2.461  0.0478 -0.6665 -0.0279
  108SOL    HW1  323   1.284   1.617   2.418 -0.4199 -0.0740 -0.5323
  108SOL    HW2  324   1.394   1.655   2.533 -2.6430 -1.1473  2.0601
  109SOL     OW  325   0.205   1.813   0.499  0.1070  0.2043  0.0193
  109SOL    HW1  326   0.170   1.760   0.422 -0.5626  0.1949  0.3243
  109SOL    HW2  327   0.209   1.754   0.580 -2.1865  0.9848  0.7797
  110SOL     OW  328   0.812   0.089   0.191  0.5516  0.4322  0.6072
  110SOL    HW1  329   0.776   0.065   0.101 -0.7852  0.5847  1.0777
  110SOL    HW2  330   0.739   0.084   0.259  0.8997  2.9189  1.2487
  111SOL     OW  331   1.878   1.829   1.508  0.0051  0.5964 -0.1494
  111SOL    HW1  332   1.928   1.864   1.588  0.4366 -1.0561  0.3404
  111SOL    HW2  333   1.784   1.861   1.511 -0.2915 -0.3282  1.6569
  112SOL     OW  334   1.257   0.898   0.787 -0.0180 -0.6395  0.1745
  112SOL    HW1  335   1.318   0.850   0.850  1.3426 -0.9584 -1.3369
  112SOL    HW2  336   1.191   0.834   0.749  0.6886 -0.9644 -0.5212
  113SOL     OW  337   0.033   2.353   1.304 -0.1756 -0.7739 -0.0156
  113SOL    HW1  338   0.070   2.398   1.223  0.2534 -3.1459 -1.2209
  113SOL    HW2  339   0.072   2.395   1.386 -1.5402  2.5059 -0.8884
  114SOL     OW  340   1.553   1.166   0.726  0.2753  0.1114 -0.3207
  114SOL    HW1  341   1.638   1.129   0.765  0.6693  1.2183 -0.1171
  114SOL    HW2  342   1.574   1.227   0.650 -0.2760  1.0384  0.2498
  115SOL     OW  343   1.558   1.513   1.521 -0.1695 -0.0239 -0.4174
  115SOL    HW1  344   1.555   1.428   1.575  2.1348  0.2731  0.2727
  115SOL    HW2  345   1.539   1.591   1.581 -3.2665 -0.0347 -1.2402
  116SOL     OW  346   2.370   2.276   2.138 -0.2215  0.6461  0.1207
  116SOL    HW1  347   2.290   2.216   2.136 -1.1167  1.8236 -1.4792
  116SOL    HW2  348   2.445   2.234   2.086 -1.1988  1.3368 -1.9230
  117SOL     OW  349   0.634   2.423   0.010  0.2849  0.1911 -0.5656
  117SOL    HW1  350   0.680   2.464  -0.069  3.8337 -0.6936  0.8001
  117SOL    HW2  351   0.613   2.327  -0.009  0.1121  0.2806 -0.8183
  118SOL     OW  352   0.463   0.260   0.945  1.1690 -0.2969 -0.0330
  118SOL    HW1  353   0.541   0.275   1.006  0.7282 -0.2270  0.5187
  118SOL    HW2  354   0.382   0.239   0.999  0.7527 -0.1514 -0.5921
  119SOL     OW  355   2.188   0.777   1.578 -0.3283 -0.3474 -0.1869
  119SOL    HW1  356   2.157   0.803   1.486  1.5601 -0.6528 -0.9569
  119SOL    HW2  357   2.113   0.732   1.626 -1.9722  1.5051 -0.8305
  120SOL     OW  358   2.440   1.547   1.284  0.3492 -0.1874  0.5868
  120SOL    HW1  359   2.344   1.526   1.301  0.4272 -0.9295  0.1464
  120SOL    HW2  360   2.469   1.622   1.344 -0.8720  0.9864 -0.2421
  121SOL     OW  361   1.627   1.963   1.437 -0.0908 -0.2369  0.7611
  121SOL    HW1  362   1.621   1.865   1.417 -0.3510 -0.3022  1.1377
  121SOL    HW2  363   1.557   2.012   1.386  0.3332 -0.1903  0.2237
  122SOL     OW  364   2.307   2.026   2.396 -0.1963 -0.6570 -0.2343
  122SOL    HW1  365   2.270   1.947   2.445  1.1859 -1.2926 -0.1738
  122SOL    HW2  366   2.249   2.046   2.316 -0.2551 -2.0824 -0.5717
  123SOL     OW  367   0.554   1.072   0.935 -0.5444 -0.2654 -0.1704
  123SOL    HW1  368   0.650   1.084   0.962  0.3899 -1.9477 -2.3955
  123SOL    HW2  369   0.511   1.162   0.925 -0.0274  0.5069  3.2469
  124SOL     OW  370   2.213   0.501   1.093  0.0989 -0.8789  0.3659
  124SOL    HW1  371   2.191   0.524   0.998 -0.2047  3.1001  1.2139
  124SOL    HW2  372   2.140   0.443   1.130  0.9957 -3.8468 -2.1295
  125SOL     OW  373   2.027   2.377   1.352  0.0713 -0.0125 -0.2140
  125SOL    HW1  374   1.988   2.285   1.352  1.2945 -0.5489 -0.6263
  125SOL    HW2  375   2.014   2.419   1.442 -0.5426 -0.5686 -0.0388
  126SOL     OW  376   0.287   1.475   0.112 -0.3850  0.3764 -0.1785
  126SOL    HW1  377   0.218   1.546   0.120 -0.1241  0.4397  2.2680
  126SOL    HW2  378   0.245   1.385   0.126 -0.0827  0.3899  0.9426
  127SOL     OW  379   0.415   1.718   1.291 -0.4684  0.2631  0.6537
  127SOL    HW1  380   0.417   1.631   1.340 -2.6459 -0.9582 -1.1967
  127SOL    HW2  381   0.507   1.740   1.258 -0.0745 -2.1742 -0.1075
  128SOL     OW  382   1.036   2.281   0.598 -0.5160  0.5490  0.5576
  128SOL    HW1  383   1.135   2.297   0.592 -0.2695 -1.2916 -1.6034
  128SOL    HW2  384   0.990   2.334   0.527 -0.6914 -0.9802 -0.5081
  129SOL     OW  385   1.022   1.599   0.846  0.3469  0.1012 -0.1263
  129SOL    HW1  386   0.933   1.640   0.825  0.0994  1.3060  2.7844
  129SOL    HW2  387   1.088   1.671   0.867  1.4483 -0.8570 -0.1993
  130SOL     OW  388   0.008   2.134   1.110 -0.4712  0.3432 -0.3514
  130SOL    HW1  389   0.037   2.188   1.189  0.9950 -1.5250  0.4732
  130SOL    HW2  390   0.064   2.051   1.104 -2.2158 -0.8065 -1.9018
  131SOL     OW  391   1.768   0.133   0.985  0.3351 -0.2499  0.1937
  131SOL    HW1  392   1.687   0.134   0.926  1.6193  0.2174 -1.6331
  131SOL    HW2  393   1.759   0.060   1.052 -0.4011 -2.0082 -1.7099
  132SOL     OW  394   2.153   2.363   0.114  0.3022 -0.1098 -0.0825
  132SOL    HW1  395   2.070   2.400   0.156  1.3639  0.6161  1.4977
  132SOL    HW2  396   2.188   2.428   0.047 -0.5053 -0.5215 -0.9230
  133SOL     OW  397   2.307   2.471   0.534  0.1616 -0.5802  0.3530
  133SOL    HW1  398   2.361   2.392   0.505 -0.6866 -0.1563 -2.6820
  133SOL    HW2  399   2.366   2.534   0.585  2.1250 -0.9805 -1.2789
  134SOL     OW  400   2.081   0.193   0.889 -0.4301 -0.4415 -0.2897
  134SOL    HW1  401   2.015   0.159   0.957  0.3389  2.3382  2.0136
  134SOL    HW2  402   2.164   0.138   0.894 -0.0690  0.2092  1.7022
  135SOL     OW  403   0.282   1.194   1.602  0.1505  0.0822  0.4385
  135SOL    HW1  404   0.194   1.229   1.571  0.3470  1.3198  1.2145
  135SOL    HW2  405   0.272   1.160   1.696  0.1039 -1.4366 -0.0915
  136SOL     OW  406   0.954   0.408   0.360 -0.0352 -0.0525 -0.0937
  136SOL    HW1  407   1.029   0.474   0.351 -0.0714  0.0019  0.0134
  136SOL    HW2  408   0.968   0.333   0.295 -0.3100  0.3651 -0.6455
  137SOL     OW  409   1.232   0.137   0.005  0.5297 -0.3442  0.4683
  137SOL    HW1  410   1.261   0.186  -0.077 -0.5339 -1.0628 -0.3773
  137SOL    HW2  411   1.153   0.182   0.046  1.4057  0.3385  1.4571
  138SOL     OW  412   0.224   0.389   2.166  0.1329 -0.0587  0.2213
  138SOL    HW1  413   0.231   0.398   2.266 -2.8279  0.4808  0.4701
  138SOL    HW2  414   0.183   0.472   2.128  0.8695 -0.4089 -1.4263
  139SOL     OW  415   1.355   2.134   1.970  0.0020 -0.0117  0.6555
  139SOL    HW1  416   1.357   2.208   2.038 -1.6224  0.3994  0.2931
  139SOL    HW2  417   1.441   2.134   1.919 -0.3680  2.4130 -0.1137
  140SOL     OW  418   1.392   1.313   0.291  0.8445 -0.3196 -0.2745
  140SOL    HW1  419   1.417   1.217   0.289  1.7699 -0.0736 -1.1406
  140SOL    HW2  420   1.303   1.326   0.248  0.1932 -0.9111  0.8395
  141SOL     OW  421   2.425   0.172   1.364  0.8486  0.3893 -0.2714
  141SOL    HW1  422   2.365   0.129   1.297  1.0852 -1.8639  0.8760
  141SOL    HW2  423   2.460   0.258   1.327  0.3894 -0.4140 -2.7224
  142SOL     OW  424   0.540   0.828   0.111 -0.0522  0.3454  0.3961
  142SOL    HW1  425   0.604   0.755   0.134 -2.4952 -2.3212 -0.5520
  142SOL    HW2  426   0.446   0.793   0.117 -1.3919  3.5262  0.0792
  143SOL     OW  427   0.697   1.402   0.862  0.3744  0.3145  0.1055
  143SOL    HW1  428   0.725   1.493   0.830  0.1859  0.6020  0.7322
  143SOL    HW2  429   0.690   1.403   0.962 -0.2884 -0.2082  0.0698
  144SOL     OW  430   0.771   2.008   1.305 -0.1878 -0.1960  0.2825
  144SOL    HW1  431   0.866   1.990   1.328 -0.6101 -1.2446  1.3215
  144SOL    HW2  432   0.744   2.097   1.341  0.5566  0.3747 -0.5504
  145SOL     OW  433   1.200   1.453   0.713  0.0248  0.8412  0.2534
  145SOL    HW1  434   1.138   1.521   0.750  0.2924  1.0144  0.3874
  145SOL    HW2  435   1.293   1.491   0.710 -0.0043  0.8596 -0.6625
  146SOL     OW  436   2.342   2.163   0.166 -0.3657 -0.1312 -0.5742
  146SOL    HW1  437   2.261   2.221   0.156  0.9280  1.4938 -2.5318
  146SOL    HW2  438   2.361   2.116   0.080 -0.2050 -1.9223  0.3872
  147SOL     OW  439   0.858   1.626   1.423  0.3818 -0.4849 -0.4744
  147SOL    HW1  440   0.883   1.598   1.331  1.8288 -3.4831  0.6685
  147SOL    HW2  441   0.939   1.663   1.470 -0.3418  1.0433 -0.3657
  148SOL     OW  442   1.447   0.498   1.982 -0.2295  0.0229  0.4305
  148SOL    HW1  443   1.458   0.574   1.919  1.6211 -0.6557 -0.1242
  148SOL    HW2  444   1.352   0.467   1.981 -1.0298  2.3449  0.7394
  149SOL     OW  445   2.454   1.340   2.297 -0.1536  0.1523 -0.2239
  149SOL    HW1  446   2.407   1.314   2.381 -0.5909  0.8761 -0.2419
  149SOL    HW2  447   2.549   1.363   2.317  0.1758 -1.1450 -0.1610
  150SOL     OW  448   0.164   2.419   1.047  0.0153 -0.3391 -0.3691
  150SOL    HW1  449   0.138   2.428   0.951 -1.5748  0.6505  0.1022
  150SOL    HW2  450   0.228   2.343   1.058  1.0341  0.1895 -2.3419
  151SOL     OW  451   1.867   1.344   0.639 -0.1981 -0.3530 -0.0314
  151SOL    HW1  452   1.837   1.439   0.632  0.4279 -0.0851  0.8183
  151SOL    HW2  453   1.900   1.313   0.550  1.0369  0.7234  0.0153
  152SOL     OW  454   0.694   0.570   1.920  0.8764  0.1198  0.3354
  152SOL    HW1  455   0.706   0.558   2.019 -0.0297 -0.7420  0.3694
  152SOL    HW2  456   0.603   0.536   1.894  0.9010  0.8213 -0.7174
  153SOL     OW  457   1.701   1.776   2.076 -0.2695 -0.1911  0.5493
  153SOL    HW1  458   1.680   1.691   2.123  0.5712  0.2381  1.7623
  153SOL    HW2  459   1.626   1.841   2.088  0.6438  0.5267  2.8664
  154SOL     OW  460   0.042   1.503   1.025 -0.6337  0.0594 -0.3469
  154SOL    HW1  461  -0.009   1.518   1.109 -0.7940  0.8322 -0.5738
  154SOL    HW2  462  -0.018   1.461   0.957 -0.0956 -2.0010  0.3954
  155SOL     OW  463   0.921   0.142   1.373 -0.0714 -0.1591  0.0919
  155SOL    HW1  464   0.922   0.214   1.442 -1.5615  1.6659 -1.6654
  155SOL    HW2  465   0.958   0.177   1.287 -2.2700 -0.9344 -1.2585
  156SOL     OW  466   1.232   1.447   2.393 -0.0851  0.5678 -0.1453
  156SOL    HW1  467   1.200   1.409   2.481 -1.2357  1.4014 -0.1844
  156SOL    HW2  468   1.180   1.405   2.319 -0.1765  0.9805 -0.3135
  157SOL     OW  469   0.339   2.259   2.290 -0.1606  0.3159 -0.1301
  157SOL    HW1  470   0.273   2.233   2.360 -0.5567  2.3215  0.2906
  157SOL    HW2  471   0.422   2.204   2.299 -0.2620  0.4412  1.8230
  158SOL     OW  472   0.310   1.241   1.319 -0.0632 -0.8505 -0.2227
  158SOL    HW1  473   0.218   1.277   1.338  0.3020 -0.1195  0.1727
  158SOL    HW2  474   0.342   1.188   1.398  0.1703 -0.4523 -0.0488
  159SOL     OW  475   1.225   0.430   1.139  0.2330  0.6333 -0.0788
  159SOL    HW1  476   1.315   0.393   1.117  0.0038 -0.4543  0.7320
  159SOL    HW2  477   1.234   0.526   1.166  0.9014  1.0793 -1.7214
  160SOL     OW  478   1.718   2.074   1.175 -0.4596  0.1119  0.0838
  160SOL    HW1  479   1.795   2.057   1.236 -1.5633 -0.7751  1.2668
  160SOL    HW2  480   1.632   2.063   1.225 -1.3693  1.0449 -1.2157
  161SOL     OW  481   0.718   1.501   2.126 -0.1190  0.0642 -0.2680
  161SOL    HW1  482   0.779   1.457   2.192  1.0348  0.3821 -1.0913
  161SOL    HW2  483   0.678   1.431   2.066 -0.3706 -0.1198  0.1095
  162SOL     OW  484   0.998   0.648   2.198  0.5981 -0.5180 -0.1617
  162SOL    HW1  485   1.040   0.679   2.112 -0.6874  0.1937 -0.5609
  162SOL    HW2  486   1.018   0.714   2.270  1.7201 -1.1406  0.1166
  163SOL     OW  487   0.468   1.652   0.370  0.9169 -0.5809  0.5947
  163SOL    HW1  488   0.399   1.645   0.442 -0.8878  0.7977 -0.8823
  163SOL    HW2  489   0.481   1.563   0.328 -0.0923 -0.8411  0.8053
  164SOL     OW  490   0.573   1.151   1.490  0.9214  0.1238 -0.1716
  164SOL    HW1  491   0.601   1.240   1.454 -0.2277  0.2733 -0.7151
  164SOL    HW2  492   0.506   1.163   1.563  0.3847 -0.3122 -0.5870
  165SOL     OW  493   0.934   0.227   1.620  0.4221 -0.1834  0.1700
  165SOL    HW1  494   0.960   0.143   1.668  0.6414 -0.6464 -0.7441
  165SOL    HW2  495   0.835   0.235   1.619  0.3535 -0.9442 -0.5702
  166SOL     OW  496   1.226   0.941   1.589 -0.0377 -0.2224 -0.2311
  166SOL    HW1  497   1.311   0.912   1.545 -0.4808  0.3625 -1.5056
  166SOL    HW2  498   1.149   0.897   1.544 -0.5306  0.7667 -0.3661
  167SOL     OW  499   2.125   1.659   0.680 -0.0510 -0.2777  0.2888
  167SOL    HW1  500   2.038   1.707   0.672  0.1927  0.3143  0.9912
  167SOL    HW2  501   2.182   1.705   0.749  1.3044  0.0950 -1.0219
  168SOL     OW  502   1.042   0.217   1.126 -0.2845  0.2190  0.1245
  168SOL    HW1  503   1.064   0.150   1.056 -0.1412  0.0769  0.3053
  168SOL    HW2  504   1.117   0.284   1.133 -0.0824 -0.0399  0.4689
  169SOL     OW  505   1.645   1.177   1.421 -0.7158  0.2112 -0.1766
  169SOL    HW1  506   1.620   1.216   1.510  0.6837  1.3008 -0.2157
  169SOL    HW2  507   1.562   1.156   1.370 -1.5599  1.5591  0.5580
  170SOL     OW  508   2.084   0.493   1.442 -0.3163 -0.4452 -0.1494
  170SOL    HW1  509   2.170   0.519   1.486  0.0488  0.6148 -1.4137
  170SOL    HW2  510   2.012   0.486   1.512  0.5880 -0.4420  0.8117
  171SOL     OW  511   1.434   0.769   0.015 -0.0462  0.8215 -0.4026
  171SOL    HW1  512   1.531   0.761   0.035 -0.1401 -0.8867 -0.4344
  171SOL    HW2  513   1.398   0.679  -0.012 -1.4691  1.5713 -1.1424
  172SOL     OW  514   2.466   1.155   2.069  0.1607 -0.4459 -0.2969
  172SOL    HW1  515   2.390   1.171   2.005  1.1296 -0.6105 -1.5164
  172SOL    HW2  516   2.472   1.232   2.132  1.2379  1.4276 -2.5208
  173SOL     OW  517   0.348   2.228   1.179  0.2968 -0.6241 -0.2661
  173SOL    HW1  518   0.394   2.315   1.191 -0.0557 -0.0458 -2.6661
  173SOL    HW2  519   0.343   2.180   1.267  1.6948  1.1405  0.8263
  174SOL     OW  520   0.423   0.490   1.909 -0.0752 -0.0996  0.6192
  174SOL    HW1  521   0.405   0.570   1.966  1.4315  0.4848  0.3280
  174SOL    HW2  522   0.402   0.407   1.961  1.1931  0.4230  2.0510
  175SOL     OW  523   2.137   0.439   0.804 -0.5445  0.1428 -0.0033
  175SOL    HW1  524   2.201   0.415   0.731 -1.3234 -0.2570 -0.5675
  175SOL    HW2  525   2.122   0.360   0.862  0.1456  0.4869  0.6653
  176SOL     OW  526   1.667   1.743   0.234  0.1431 -0.5264 -0.1798
  176SOL    HW1  527   1.584   1.688   0.246 -0.3706  0.2024 -0.3560
  176SOL    HW2  528   1.746   1.691   0.268  0.2589 -2.9357 -3.5683
  177SOL     OW  529   1.472   1.071   1.215  0.4417  0.3699  0.2047
  177SOL    HW1  530   1.543   1.049   1.148  1.2010 -2.1512  1.6679
  177SOL    HW2  531   1.383   1.044   1.179  0.8343 -0.9297  0.1357
  178SOL     OW  532   2.253   1.830   0.865 -0.1224  0.2780 -0.1465
  178SOL    HW1  533   2.341   1.784   0.867  0.0264  0.4640 -1.6878
  178SOL    HW2  534   2.257   1.908   0.803 -1.4931  0.0423 -0.5674
  179SOL     OW  535   1.610   0.522   0.951  0.3478 -0.1649 -0.5784
  179SOL    HW1  536   1.689   0.483   0.905  0.4209  0.6740 -1.1781
  179SOL    HW2  537   1.561   0.449   0.999  0.7831 -0.9030 -1.2230
  180SOL     OW  538   0.178   0.877   0.251  0.0728 -0.1366  0.4192
  180SOL    HW1  539   0.084   0.873   0.218  0.1038  0.9349  0.1576
  180SOL    HW2  540   0.231   0.803   0.209 -0.8259 -1.2625  1.1995
  181SOL     OW  541   0.349   0.776   0.576  0.4503  0.3343 -0.5050
  181SOL    HW1  542   0.408   0.844   0.533  0.7033  0.3197 -0.1804
  181SOL    HW2  543   0.262   0.818   0.601  0.4486  0.4360 -0.6786
  182SOL     OW  544   0.804   1.417   0.473  0.2120 -0.2588 -0.8206
  182SOL    HW1  545   0.776   1.377   0.386  1.9173 -0.0702 -1.5137
  182SOL    HW2  546   0.786   1.515   0.472 -2.1058 -0.6398  0.0749
  183SOL     OW  547   0.412   1.462   1.426 -0.3030 -0.0524  0.4511
  183SOL    HW1  548   0.352   1.475   1.504  0.1658 -0.2826  0.8529
  183SOL    HW2  549   0.381   1.383   1.372 -1.0618  0.5485 -0.0201
  184SOL     OW  550   1.124   0.739   1.988 -0.3877  0.2419  0.0595
  184SOL    HW1  551   1.200   0.790   2.029 -1.2493  1.6819 -0.0534
  184SOL    HW2  552   1.151   0.707   1.898 -0.4563  2.2757 -0.7322
  185SOL     OW  553   0.495   1.388   0.265  0.8740 -0.2098 -0.3399
  185SOL    HW1  554   0.424   1.388   0.195  2.0083  0.2719 -1.5334
  185SOL    HW2  555   0.462   1.340   0.346 -0.8203  0.0511 -0.8359
  186SOL     OW  556   1.286   2.062   1.459 -0.4283  0.5434 -0.0297
  186SOL    HW1  557   1.202   2.019   1.425 -0.1510 -1.1258  1.2906
  186SOL    HW2  558   1.279   2.077   1.557  0.5941  0.9888 -0.0115
  187SOL     OW  559   0.100   1.397   1.821  0.4893 -0.3435 -0.1621
  187SOL    HW1  560   0.082   1.299   1.818  1.7764 -0.5807 -0.7569
  187SOL    HW2  561   0.024   1.443   1.867  0.2684 -1.7057  0.9093
  188SOL     OW  562   1.218   1.349   1.747 -0.7148 -0.1133 -0.2875
  188SOL    HW1  563   1.224   1.258   1.789 -1.6178 -0.7841 -1.5582
  188SOL    HW2  564   1.124   1.369   1.723 -0.3605  0.6836 -1.0759
  189SOL     OW  565   1.369   1.034   0.593  0.6432 -0.0482 -0.2700
  189SOL    HW1  566   1.443   1.083   0.640  0.2353  0.1296  0.2004
  189SOL    HW2  567   1.325   0.971   0.657  0.4081 -0.1762 -0.5537
  190SOL     OW  568   1.789   0.258   1.270 -0.3449  0.4028 -0.3025
  190SOL    HW1  569   1.724   0.190   1.233  1.9407 -2.2103  0.1326
  190SOL    HW2  570   1.781   0.261   1.369  0.3562 -0.1800 -0.2162
  191SOL     OW  571   1.137   1.092   2.361  0.1674 -0.0136 -0.4258
  191SOL    HW1  572   1.133   1.166   2.294 -1.1560  0.5587  0.2316
  191SOL    HW2  573   1.072   1.111   2.435  0.2838 -1.5100  0.1022
  192SOL     OW  574   2.199   1.768   0.002 -0.0070  0.3432 -0.1411
  192SOL    HW1  575   2.112   1.777  -0.046 -0.6015 -1.6114  0.4688
  192SOL    HW2  576   2.213   1.672   0.029  0.5067  1.2019  3.1360
  193SOL     OW  577   0.868   2.293   1.010  0.0065 -0.0159 -0.0173
  193SOL    HW1  578   0.911   2.334   0.930  0.3852 -1.4437 -0.5757
  193SOL    HW2  579   0.820   2.210   0.983 -2.3566  1.0043  0.7498
  194SOL     OW  580   2.174   0.552   0.329  0.8082 -0.1574  0.6711
  194SOL    HW1  581   2.174   0.600   0.242 -1.4313 -1.1977  0.0081
  194SOL    HW2  582   2.227   0.468   0.322 -0.5248 -0.9651 -0.1955
  195SOL     OW  583   2.279   1.908   1.450  0.2291 -0.6383  0.0619
  195SOL    HW1  584   2.361   1.952   1.484  0.4029  0.0025 -1.1361
  195SOL    HW2  585   2.264   1.934   1.354 -2.3436  0.7304  0.7470
  196SOL     OW  586   1.963   1.778   0.912  0.4489  0.5755 -0.2469
  196SOL    HW1  587   1.937   1.824   0.827  2.9537  0.3148 -1.2484
  196SOL    HW2  588   2.010   1.843   0.972 -1.9870  0.9602  1.3561
  197SOL     OW  589   0.888   0.765   1.794 -0.7280 -0.4597  0.1399
  197SOL    HW1  590   0.810   0.707   1.816 -0.4094 -1.0701 -0.2746
  197SOL    HW2  591   0.973   0.715   1.813 -0.4469 -0.2337 -0.4887
  198SOL     OW  592   1.363   0.964   2.307  0.4981 -0.3361  0.1543
  198SOL    HW1  593   1.273   1.004   2.321 -0.4581 -2.4519  0.3401
  198SOL    HW2  594   1.382   0.896   2.378  1.6760 -0.8793 -0.6380
  199SOL     OW  595   0.574   1.005   0.603 -0.0458 -0.3175  0.0840
  199SOL    HW1  596   0.554   0.993   0.505  1.7418  0.5113 -0.4170
  199SOL    HW2  597   0.618   1.093   0.618 -0.6602 -0.2491  1.7371
  200SOL     OW  598   0.224   2.392   0.789 -0.0149  0.2649  0.5197
  200SOL    HW1  599   0.228   2.295   0.766  2.1870 -0.1884  2.5129
  200SOL    HW2  600   0.293   2.442   0.737  0.1253  0.4375  0.8654
  201SOL     OW  601   0.010   0.252   2.281 -0.3279 -0.2424  0.6420
  201SOL    HW1  602   0.072   0.315   2.235 -0.3331 -0.4121  0.4022
  201SOL    HW2  603   0.059   0.169   2.307 -0.0920  0.2275  1.7835
  202SOL     OW  604   1.933   0.726   1.701  0.2070 -0.1751  0.1920
  202SOL    HW1  605   1.950   0.820   1.671  1.4723 -1.0550 -2.0624
  202SOL    HW2  606   1.944   0.721   1.800  1.3198  1.8159  0.2363
  203SOL     OW  607   2.145   1.144   0.592 -0.3020 -0.5848  0.4849
  203SOL    HW1  608   2.150   1.185   0.683  0.2475 -4.1477  2.2608
  203SOL    HW2  609   2.068   1.183   0.541 -1.6034  0.4554  3.0790
  204SOL     OW  610   2.301   0.052   0.943  0.0254  0.7297  0.2165
  204SOL    HW1  611   2.289   0.047   1.042  1.6328 -0.4319  0.3874
  204SOL    HW2  612   2.340  -0.034   0.909  1.5131  1.8697 -1.1175
  205SOL     OW  613   0.267   2.080   0.610  0.4516 -0.0525 -0.5782
  205SOL    HW1  614   0.364   2.093   0.591  0.7411 -0.4195  0.5415
  205SOL    HW2  615   0.234   1.997   0.565  1.0071 -0.6715  0.1286
  206SOL     OW  616   0.404   0.756   2.025  0.0486 -0.0451 -0.3864
  206SOL    HW1  617   0.374   0.850   2.038 -1.7253 -0.8160  1.6812
  206SOL    HW2  618   0.446   0.722   2.110 -0.1206 -1.3807 -0.8078
  207SOL     OW  619   0.316   1.398   1.997  0.0848 -0.4992 -0.2659
  207SOL    HW1  620   0.261   1.399   1.913 -0.4525 -0.1830  0.0792
  207SOL    HW2  621   0.347   1.491   2.018 -1.7524 -0.1214  1.1222
  208SOL     OW  622   1.180   0.364   1.602 -0.3980  0.3830 -0.2323
  208SOL    HW1  623   1.221   0.293   1.659 -0.2641 -0.6837 -1.6097
  208SOL    HW2  624   1.091   0.333   1.569 -0.0662  0.5685 -1.3570
  209SOL     OW  625   0.554   1.551   1.798 -0.1662  0.0916  0.3490
  209SOL    HW1  626   0.575   1.624   1.732 -0.8715  0.7536  0.8428
  209SOL    HW2  627   0.495   1.483   1.755  1.3102 -0.7602 -0.4367
  210SOL     OW  628   0.559   0.094   0.331  0.1952  0.2484  0.4414
  210SOL    HW1  629   0.555  -0.001   0.298  0.8006 -0.6130  2.6905
  210SOL    HW2  630   0.489   0.148   0.285  0.4033 -1.0402 -1.5509
  211SOL     OW  631   0.965   2.465   1.804  0.1020  0.5190  0.0251
  211SOL    HW1  632   0.870   2.446   1.777 -0.5906  0.7300  2.1150
  211SOL    HW2  633   1.024   2.390   1.774 -1.1148 -0.7104  0.5834
  212SOL     OW  634   1.629   1.088   2.294  0.2378  0.0454 -0.1426
  212SOL    HW1  635   1.537   1.049   2.306  0.7333 -1.0921  0.1169
  212SOL    HW2  636   1.697   1.024   2.330  1.1327  0.9231 -0.2333
  213SOL     OW  637   0.123   1.257   0.117 -0.1191  0.1030  0.5500
  213SOL    HW1  638   0.144   1.234   0.212 -0.9004  2.6209  1.4111
  213SOL    HW2  639   0.029   1.231   0.096 -1.2845  2.9370  1.7812
  214SOL     OW  640   2.019   0.270   2.461 -0.0618 -0.0318 -0.1917
  214SOL    HW1  641   1.945   0.285   2.528  0.3668 -0.2360  0.3384
  214SOL    HW2  642   1.986   0.211   2.388 -0.4062 -0.1839  0.0813
  215SOL     OW  643   0.183   2.035   1.547  0.1609  0.1538  0.4637
  215SOL    HW1  644   0.184   1.989   1.458 -1.9496  0.3863  0.2616
  215SOL    HW2  645   0.204   1.969   1.619 -0.6646 -0.6376 -0.0072
  216SOL     OW  646   2.462   2.301   0.395 -0.2334 -0.5134 -0.1670
  216SOL    HW1  647   2.422   2.254   0.316 -1.1982  0.1833 -0.1136
  216SOL    HW2  648   2.527   2.370   0.363  0.3404 -1.1008 -0.2886
  217SOL     OW  649   0.353   2.333   1.761  0.7552  0.0677  0.0529
  217SOL    HW1  650   0.285   2.362   1.829 -0.1895 -1.0851 -0.3707
  217SOL    HW2  651   0.433   2.295   1.808 -0.2039 -1.4276  0.5352
  218SOL     OW  652   0.079   0.539   0.499  0.0141 -0.2816 -0.4363
  218SOL    HW1  653   0.082   0.465   0.565  0.0514  0.1950  0.0993
  218SOL    HW2  654   0.044   0.622   0.543  0.1748  0.0774 -0.9760
  219SOL     OW  655   1.652   1.036   1.023  0.0130 -0.3016 -0.4055
  219SOL    HW1  656   1.689   0.944   1.037 -0.5632 -0.5893 -0.7446
  219SOL    HW2  657   1.706   1.084   0.955 -0.3019 -0.7681 -0.9942
  220SOL     OW  658   1.822   0.458   0.175 -0.6687  0.0149 -0.0535
  220SOL    HW1  659   1.736   0.507   0.184 -0.8221  0.0873 -1.6275
  220SOL    HW2  660   1.854   0.429   0.265 -0.9300  2.3691  0.8698
  221SOL     OW  661   0.015   2.191   0.643 -0.2170 -0.1300 -0.1250
  221SOL    HW1  662   0.097   2.133   0.647 -0.5617 -0.6497 -0.5799
  221SOL    HW2  663   0.009   2.234   0.553 -1.8200 -2.1359 -1.0447
  222SOL     OW  664   2.222   0.653   0.090  0.3117 -0.1536  0.1311
  222SOL    HW1  665   2.259   0.567   0.054  0.1772  0.1623 -0.7862
  222SOL    HW2  666   2.280   0.729   0.060 -0.4067  0.2283 -0.3125
  223SOL     OW  667   0.866   2.107   1.584  0.3915 -0.1314 -0.3115
  223SOL    HW1  668   0.790   2.158   1.543  0.7095  0.3002 -0.3685
  223SOL    HW2  669   0.922   2.170   1.638 -0.5877 -0.8508  1.6440
  224SOL     OW  670   2.380   0.472   1.803  0.3601  0.1420 -0.3805
  224SOL    HW1  671   2.369   0.455   1.705  0.5891  0.4134 -0.4560
  224SOL    HW2  672   2.394   0.385   1.850  0.6477  0.0424 -0.6418
  225SOL     OW  673   1.422   1.661   2.091  0.4538  0.4684  0.2257
  225SOL    HW1  674   1.434   1.639   2.188  1.7489  1.8553  0.4141
  225SOL    HW2  675   1.345   1.608   2.055 -0.1133 -0.0238  2.0172
  226SOL     OW  676   0.214   2.112   2.088  0.4306  0.0450 -0.2786
  226SOL    HW1  677   0.166   2.040   2.139  1.6189 -0.2182  0.4970
  226SOL    HW2  678   0.250   2.180   2.152 -0.0551  0.9598 -0.9542
  227SOL     OW  679   0.796   2.150   2.347 -0.7197 -0.2710 -0.0240
  227SOL    HW1  680   0.868   2.139   2.416 -1.6711  1.3797  1.2960
  227SOL    HW2  681   0.835   2.194   2.265  0.2186 -1.3972 -0.2075
  228SOL     OW  682   0.345   0.841   0.930 -0.0181  0.1675  0.3763
  228SOL    HW1  683   0.426   0.810   0.881  0.3865 -0.6508  1.5039
  228SOL    HW2  684   0.371   0.905   1.002  0.1375 -2.4397  2.8256
  229SOL     OW  685   1.357   0.514   2.377 -0.4130  0.3171 -0.2975
  229SOL    HW1  686   1.425   0.525   2.305  0.3630  0.9920  0.5170
  229SOL    HW2  687   1.392   0.448   2.445 -0.1085  1.4181  0.6412
  230SOL     OW  688   0.684   1.905   2.230  0.3251  0.1799 -0.7203
  230SOL    HW1  689   0.737   1.842   2.286 -0.9724 -1.5304 -1.3086
  230SOL    HW2  690   0.697   1.998   2.262  3.5366 -0.1392 -0.7862
  231SOL     OW  691   0.500   0.709   2.280 -0.0131 -0.0561 -0.1882
  231SOL    HW1  692   0.548   0.797   2.284  0.0292 -0.0091 -1.3648
  231SOL    HW2  693   0.541   0.646   2.345 -1.4985  1.4529  2.4142
  232SOL     OW  694   0.277   2.016   0.857 -0.0408  0.0388 -0.3493
  232SOL    HW1  695   0.358   2.066   0.888 -0.7459  1.3368 -0.5624
  232SOL    HW2  696   0.267   2.028   0.758  0.5978 -1.7435 -0.6625
  233SOL     OW  697   1.873   1.598   0.317  0.0819  0.1707 -0.6983
  233SOL    HW1  698   1.846   1.513   0.271 -0.6741 -1.2645  2.1856
  233SOL    HW2  699   1.959   1.584   0.365  0.0398  1.0933 -0.3419
  234SOL     OW  700   1.087   1.169   1.329  0.3710 -0.3328 -0.4393
  234SOL    HW1  701   1.111   1.161   1.233  0.5008  2.4218 -0.7037
  234SOL    HW2  702   1.169   1.190   1.383  0.0038 -0.0009 -0.0024
  235SOL     OW  703   1.270   0.950   0.222 -0.0464 -0.2727  0.1589
  235SOL    HW1  704   1.236   0.985   0.310 -0.2621  0.7005 -0.3032
  235SOL    HW2  705   1.356   0.901   0.237 -0.9840 -1.7006  1.1655
  236SOL     OW  706   0.972   1.405   1.676 -0.2758 -0.4069  0.1934
  236SOL    HW1  707   0.949   1.450   1.589  1.5815 -0.4994 -0.3791
  236SOL    HW2  708   0.898   1.341   1.700 -0.5727 -0.8195 -1.6202
  237SOL     OW  709   0.535   0.158   1.826  0.0803 -0.1909  0.1500
  237SOL    HW1  710   0.530   0.206   1.914  1.0000 -1.2559  0.8175
  237SOL    HW2  711   0.442   0.148   1.789 -0.0521  3.9277 -1.1176
  238SOL     OW  712   2.468   0.623   1.139  0.0651  0.6326  0.3802
  238SOL    HW1  713   2.383   0.573   1.120  1.2068 -1.0886 -0.4303
  238SOL    HW2  714   2.475   0.701   1.078 -0.4583  0.2142 -0.2274
  239SOL     OW  715   0.565   2.179   1.839  0.6814  0.7878  0.0226
  239SOL    HW1  716   0.624   2.098   1.836  1.2360  1.1512  0.7930
  239SOL    HW2  717   0.612   2.255   1.794  0.4911  0.8833 -0.0121
  240SOL     OW  718   2.270   0.404   2.464 -0.1571 -0.4466  0.0491
  240SOL    HW1  719   2.337   0.359   2.406 -0.6216 -0.4025 -0.5285
  240SOL    HW2  720   2.183   0.355   2.460 -0.7148  0.5694 -0.7092
  241SOL     OW  721   2.046   1.518   2.204  0.2868  0.2293 -0.4890
  241SOL    HW1  722   2.006   1.606   2.227  0.1346  0.1964 -0.6228
  241SOL    HW2  723   2.139   1.531   2.171 -0.8839  0.7233 -3.9164
  242SOL     OW  724   0.370   2.445   0.092 -0.5579  0.2672  0.2025
  242SOL    HW1  725   0.333   2.357   0.064  0.1831 -0.3589  1.1152
  242SOL    HW2  726   0.467   2.450   0.067 -0.7313  1.0531 -0.3392
  243SOL     OW  727   1.928   2.057   2.259  0.1877 -0.4785  0.2547
  243SOL    HW1  728   1.952   2.085   2.352  0.1709 -1.2413  0.5006
  243SOL    HW2  729   1.829   2.052   2.250  0.1972 -0.9280  0.3645
  244SOL     OW  730   0.828   1.918   0.320 -0.3933  0.1011  0.0638
  244SOL    HW1  731   0.787   1.893   0.407 -0.0203  2.1887  0.8981
  244SOL    HW2  732   0.824   1.840   0.257  0.0960 -1.7397  2.2054
  245SOL     OW  733   1.762   0.493   0.645  0.0416 -0.2603 -0.2658
  245SOL    HW1  734   1.827   0.463   0.575 -1.2252 -0.8013 -1.2604
  245SOL    HW2  735   1.791   0.458   0.734  1.6880  0.4457 -0.4837
  246SOL     OW  736   1.623   0.460   1.661 -0.5238 -0.4637  0.3054
  246SOL    HW1  737   1.546   0.416   1.614  0.1120 -1.9174  0.5536
  246SOL    HW2  738   1.667   0.526   1.600 -1.0563 -0.7233 -0.3616
  247SOL     OW  739   1.119   0.398   0.807 -0.0151  0.0533  0.1790
  247SOL    HW1  740   1.201   0.444   0.774  0.1536 -0.7053 -0.4889
  247SOL    HW2  741   1.129   0.377   0.904  0.3417  0.4606  0.2320
  248SOL     OW  742   2.301   2.224   1.434 -0.1703  0.0601  0.0626
  248SOL    HW1  743   2.373   2.273   1.387 -0.1046 -0.5084 -0.4361
  248SOL    HW2  744   2.212   2.264   1.410 -0.1364 -0.2147 -0.5352
  249SOL     OW  745   1.874   1.312   0.146  0.3580 -0.0258  0.3831
  249SOL    HW1  746   1.794   1.300   0.087  0.4425  1.6887 -0.1617
  249SOL    HW2  747   1.955   1.326   0.089  0.4373  1.6854  0.8559
  250SOL     OW  748   1.513   2.058   0.135  0.3075  0.2811 -0.4856
  250SOL    HW1  749   1.493   2.000   0.055 -0.4563  1.0583 -0.8702
  250SOL    HW2  750   1.429   2.075   0.186  0.9033 -0.8567  0.9735
  251SOL     OW  751   0.004   0.122   0.769  0.0942 -0.3894  0.0141
  251SOL    HW1  752   0.070   0.047   0.769  0.0003 -0.4969 -1.4299
  251SOL    HW2  753  -0.068   0.102   0.836  0.8741 -0.8417  0.7397
  252SOL     OW  754   1.362   1.286   2.027  0.6228  0.0484 -0.6333
  252SOL    HW1  755   1.458   1.277   2.001  2.1381  1.3405  3.6844
  252SOL    HW2  756   1.331   1.379   2.007  1.2906  0.5745  0.6939
  253SOL     OW  757   0.647   2.230   1.418 -0.1606  0.1853 -0.1372
  253SOL    HW1  758   0.549   2.236   1.434  0.0196 -0.6490  1.4663
  253SOL    HW2  759   0.688   2.320   1.427 -0.7081  0.4629 -0.3894
  254SOL     OW  760   1.166   0.097   0.934  0.1898 -0.6237  0.1651
  254SOL    HW1  761   1.263   0.115   0.917 -0.2876  1.5562 -0.6274
  254SOL    HW2  762   1.138   0.015   0.884  1.7589 -1.7500  1.0277
  255SOL     OW  763   1.565   0.103   1.243 -0.5978  0.7709  0.0480
  255SOL    HW1  764   1.579   0.013   1.201 -0.8559 -0.1817  1.8648
  255SOL    HW2  765   1.486   0.098   1.305  0.0210  1.9561  0.9600
  256SOL     OW  766   1.059   1.318   0.524 -0.2416  0.0013  0.2997
  256SOL    HW1  767   0.961   1.337   0.532 -0.0536  1.2086 -0.0595
  256SOL    HW2  768   1.108   1.364   0.599  0.1451  0.1930 -0.0703
  257SOL     OW  769   0.970   1.151   2.007 -0.0346 -0.2519 -0.6022
  257SOL    HW1  770   0.873   1.158   1.984 -0.2548 -1.1995 -0.0369
  257SOL    HW2  771   1.018   1.101   1.935 -0.0083  0.0319 -0.7813
  258SOL     OW  772   1.867   1.325   1.358  0.6180  0.3923 -0.2695
  258SOL    HW1  773   1.787   1.269   1.378  1.0068  0.6150  2.1648
  258SOL    HW2  774   1.843   1.396   1.293 -0.3820 -1.3192 -1.8671
  259SOL     OW  775   1.107   1.831   2.051 -0.3739 -0.3660  0.2234
  259SOL    HW1  776   1.197   1.864   2.082 -0.4549  0.2407 -0.1635
  259SOL    HW2  777   1.074   1.761   2.114  0.5295 -0.8552  0.1735
  260SOL     OW  778   1.533   1.386   0.505  0.1206  0.4752 -0.3203
  260SOL    HW1  779   1.481   1.377   0.420 -0.1426 -1.5097 -0.0011
  260SOL    HW2  780   1.478   1.433   0.574 -0.8213 -0.5166 -0.3641
  261SOL     OW  781   2.420   1.829   1.937 -0.3374  0.1838 -0.5405
  261SOL    HW1  782   2.334   1.877   1.921  0.8174  1.9492 -1.6710
  261SOL    HW2  783   2.453   1.851   2.029 -0.6743  0.1367 -0.4044
  262SOL     OW  784   0.534   0.386   0.500  0.3886  0.3328  0.4198
  262SOL    HW1  785   0.625   0.392   0.542 -0.5455  2.5718  2.3707
  262SOL    HW2  786   0.467   0.434   0.558 -2.0290 -1.0359 -1.0462
  263SOL     OW  787   0.725   1.695   0.513  0.0297 -0.0103 -0.0186
  263SOL    HW1  788   0.640   1.655   0.478  0.2389  0.7022 -1.4443
  263SOL    HW2  789   0.707   1.788   0.544  0.5337  0.7635 -1.8625
  264SOL     OW  790   2.216   1.500   0.078  0.0182 -0.3918 -0.0490
  264SOL    HW1  791   2.176   1.439   0.009  2.8004 -1.3637 -0.9156
  264SOL    HW2  792   2.240   1.448   0.160 -1.5697  0.4292  1.0054
  265SOL     OW  793   1.436   0.116   0.862  0.0567 -0.6325 -0.1023
  265SOL    HW1  794   1.464   0.035   0.912  2.0901  1.1485  1.8735
  265SOL    HW2  795   1.500   0.133   0.787 -0.0652 -0.5951 -0.1981
  266SOL     OW  796   0.791   1.670   0.777 -0.2535 -0.4256  0.0454
  266SOL    HW1  797   0.782   1.680   0.678 -0.1392  0.4069  0.1056
  266SOL    HW2  798   0.742   1.745   0.822 -0.8904 -1.1807  0.6479
  267SOL     OW  799   0.788   1.211   1.723 -0.0991 -0.3230 -0.0183
  267SOL    HW1  800   0.710   1.154   1.696 -1.2881  2.0073 -1.8373
  267SOL    HW2  801   0.868   1.187   1.668 -1.2361  1.2154 -2.4886
  268SOL     OW  802   1.326   2.178   0.667 -0.9485  0.0664 -0.4665
  268SOL    HW1  803   1.319   2.276   0.686 -2.8146 -0.1929  0.3924
  268SOL    HW2  804   1.389   2.163   0.591 -0.2186  1.8774 -0.2611
  269SOL     OW  805   0.540   0.879   1.479  0.1100  0.1215 -0.5452
  269SOL    HW1  806   0.557   0.978   1.478 -1.1143  0.4116  1.6700
  269SOL    HW2  807   0.508   0.851   1.570  1.8811 -2.6023 -0.6625
  270SOL     OW  808   0.717   0.053   0.557 -0.1888 -0.3972 -0.0032
  270SOL    HW1  809   0.653   0.097   0.494  0.7043  0.9999  0.0114
  270SOL    HW2  810   0.722   0.107   0.641  0.8270 -0.6057  0.0797
  271SOL     OW  811   2.278   1.969   1.145  0.5215  0.3885 -0.1338
  271SOL    HW1  812   2.350   2.038   1.150  0.1688  0.8603 -1.1693
  271SOL    HW2  813   2.245   1.962   1.050  0.6693 -1.3331 -0.0868
  272SOL     OW  814   0.485   2.150   0.931  0.2920 -0.8664  0.3325
  272SOL    HW1  815   0.450   2.191   1.016 -2.0932  0.9903 -1.3863
  272SOL    HW2  816   0.537   2.219   0.880 -0.3972 -1.1607 -0.8149
  273SOL     OW  817   1.135   1.861   0.031  0.1759  0.1178 -0.4187
  273SOL    HW1  818   1.125   1.859   0.131 -0.8481 -1.7262 -0.5154
  273SOL    HW2  819   1.198   1.788   0.003  0.9963  1.0658 -1.0858
  274SOL     OW  820   0.327   1.562   0.574 -0.0293 -0.2589 -0.8849
  274SOL    HW1  821   0.339   1.620   0.655  1.0956  0.8289 -1.7831
  274SOL    HW2  822   0.337   1.466   0.600  1.2216  0.1183  0.1295
  275SOL     OW  823   1.339   2.138   0.950 -0.4722  0.7659 -0.0499
  275SOL    HW1  824   1.344   2.162   0.854 -0.0519 -2.4909 -0.9655
  275SOL    HW2  825   1.244   2.124   0.976 -0.4578 -0.7392 -0.7203
  276SOL     OW  826   1.081   0.700   1.442 -0.3110 -0.1182 -0.3206
  276SOL    HW1  827   1.003   0.759   1.463 -0.2746  0.0923 -0.7605
  276SOL    HW2  828   1.120   0.664   1.527 -0.1557  0.7210 -0.0287
  277SOL     OW  829   1.033   1.098   0.146  0.3582 -0.3030  1.0465
  277SOL    HW1  830   1.109   1.043   0.183  0.9854 -0.0976  0.1016
  277SOL    HW2  831   0.947   1.049   0.158  0.8400 -1.2453  0.7326
  278SOL     OW  832   0.879   0.971   1.264  0.3998  0.3077  0.5848
  278SOL    HW1  833   0.848   0.918   1.343  0.6058 -0.1657  0.3534
  278SOL    HW2  834   0.944   1.041   1.294  0.4838  0.1224  0.8370
  279SOL     OW  835   1.535   1.672   1.762  0.0529  0.2508  0.0644
  279SOL    HW1  836   1.598   1.604   1.800 -0.8830  0.3450  1.8954
  279SOL    HW2  837   1.467   1.697   1.831 -1.8579  0.3343 -1.7449
  280SOL     OW  838   1.853   2.312   2.030 -0.0711  0.0224 -0.1874
  280SOL    HW1  839   1.879   2.301   2.126  2.8008  1.1185 -0.7304
  280SOL    HW2  840   1.936   2.317   1.973 -1.6657 -0.4477 -2.7371
  281SOL     OW  841   0.038   1.180   0.837  0.2216  0.1551 -0.1716
  281SOL    HW1  842   0.082   1.121   0.905 -0.2956 -0.9203 -0.7431
  281SOL    HW2  843  -0.062   1.173   0.847  0.1514  0.6161 -0.5143
  282SOL     OW  844   0.464   1.156   2.365 -0.0333 -0.0477  0.1461
  282SOL    HW1  845   0.476   1.153   2.265 -0.8184  0.6447  0.0194
  282SOL    HW2  846   0.390   1.095   2.391  1.2469 -1.5052  0.5121
  283SOL     OW  847   0.067   0.831   0.916  0.5092  0.4293  0.6414
  283SOL    HW1  848   0.072   0.919   0.963  1.4301  1.3371 -1.0459
  283SOL    HW2  849   0.159   0.801   0.892  0.0379  1.1937 -2.5770
  284SOL     OW  850   1.509   0.058   0.475 -0.5750 -0.0442  0.1939
  284SOL    HW1  851   1.593   0.002   0.471 -0.2049  0.4486  0.8437
  284SOL    HW2  852   1.448   0.031   0.401  0.3274 -0.1426 -0.5416
  285SOL     OW  853   0.650   0.673   0.573 -0.4680 -0.1134 -0.1584
  285SOL    HW1  854   0.658   0.692   0.671  1.0610  2.1711 -0.6351
  285SOL    HW2  855   0.554   0.659   0.549 -0.7850 -1.7087  1.7824
  286SOL     OW  856   1.273   2.129   0.274  0.4928 -0.1157  0.3003
  286SOL    HW1  857   1.189   2.075   0.284  0.9148 -1.2754 -1.8376
  286SOL    HW2  858   1.249   2.220   0.239  0.1308 -0.5230 -0.5378
  287SOL     OW  859   1.877   1.886   1.894 -0.0189  0.1014 -0.1711
  287SOL    HW1  860   1.818   1.940   1.835 -0.2728  0.6170  0.5472
  287SOL    HW2  861   1.825   1.852   1.972  0.3781 -0.3506 -0.0955
  288SOL     OW  862   0.448   1.331   0.952  0.2523  0.6445  0.8083
  288SOL    HW1  863   0.403   1.406   1.000 -0.8014  0.4175  0.1955
  288SOL    HW2  864   0.528   1.366   0.903 -0.0875  1.3218  0.7296
  289SOL     OW  865   0.883   2.059   0.857 -0.2121  0.5311 -0.0471
  289SOL    HW1  866   0.923   2.044   0.766 -1.3140  2.9246 -0.9953
  289SOL    HW2  867   0.805   1.997   0.869  1.5845 -1.7770  0.4734
  290SOL     OW  868   0.225   0.484   0.901 -0.2109 -0.2231 -0.0015
  290SOL    HW1  869   0.294   0.465   0.972  1.1921  1.7065 -0.7651
  290SOL    HW2  870   0.168   0.561   0.929  0.6690  0.8735 -1.1215
  291SOL     OW  871   0.305   0.688   0.116 -0.2001  0.3029 -0.1520
  291SOL    HW1  872   0.230   0.656   0.058 -0.6443  1.2869 -0.1556
  291SOL    HW2  873   0.305   0.637   0.202  0.3258 -1.0105 -0.9090
  292SOL     OW  874   1.443   0.323   1.476 -0.0907 -0.5139  0.1341
  292SOL    HW1  875   1.348   0.353   1.489  0.0194 -0.0551 -0.0863
  292SOL    HW2  876   1.448   0.224   1.482 -0.6004 -0.5458  0.0752
  293SOL     OW  877   0.731   0.259   0.782 -0.3499  0.1895  0.4107
  293SOL    HW1  878   0.639   0.254   0.820 -0.4335  1.0789  0.3275
  293SOL    HW2  879   0.765   0.352   0.786  0.5523 -0.1272  0.4279
  294SOL     OW  880   1.586   0.488   2.232  0.7597  0.6296 -0.1269
  294SOL    HW1  881   1.555   0.490   2.137 -0.3720 -0.2459  0.2099
  294SOL    HW2  882   1.605   0.394   2.259  2.7546  1.0272  0.0122
  295SOL     OW  883   0.317   0.225   0.513 -0.7120 -0.4385 -1.0249
  295SOL    HW1  884   0.244   0.290   0.537 -0.7428 -0.1073 -1.9622
  295SOL    HW2  885   0.404   0.274   0.508 -0.2473 -0.9753  0.8777
  296SOL     OW  886   0.161   1.120   0.360 -0.4926  0.4822  0.0906
  296SOL    HW1  887   0.095   1.133   0.434 -2.8588 -0.9017 -1.6426
  296SOL    HW2  888   0.154   1.027   0.326  1.7178  0.6063 -0.8333
  297SOL     OW  889   1.721   1.789   2.439  0.1840  0.9672 -0.1518
  297SOL    HW1  890   1.704   1.756   2.532 -0.5965  2.1022  0.1333
  297SOL    HW2  891   1.650   1.855   2.414 -0.6980 -0.6525 -2.2482
  298SOL     OW  892   2.291   1.540   2.131 -0.1813 -0.0239 -0.3828
  298SOL    HW1  893   2.304   1.575   2.039 -1.3059  0.9499 -0.2039
  298SOL    HW2  894   2.380   1.528   2.175  0.3277  0.5511 -1.2160
  299SOL     OW  895   0.625   2.361   0.809  0.0243 -0.1389 -0.4311
  299SOL    HW1  896   0.580   2.446   0.782 -0.8663 -0.2067  0.7677
  299SOL    HW2  897   0.724   2.376   0.812 -0.1351  0.9411 -0.0101
  300SOL     OW  898   1.901   1.217   0.392  0.2994  0.2355  0.7041
  300SOL    HW1  899   1.837   1.143   0.412  0.9107 -1.2128 -2.2211
  300SOL    HW2  900   1.877   1.259   0.304  2.7471  0.3109 -0.0049
  301SOL     OW  901   1.031   1.963   1.408  0.1508 -0.3508  0.1848
  301SOL    HW1  902   0.974   2.012   1.474  1.2599 -1.0791  1.7524
  301SOL    HW2  903   1.032   1.866   1.430 -0.9731 -0.9514 -2.0953
  302SOL     OW  904   0.850   0.464   0.905  0.0519  0.6554  0.2186
  302SOL    HW1  905   0.935   0.417   0.878 -0.5592 -0.1871 -0.2903
  302SOL    HW2  906   0.852   0.558   0.871  0.2854  0.2959 -0.7902
  303SOL     OW  907   1.505   1.855   0.651 -0.1635  0.4013  1.0163
  303SOL    HW1  908   1.528   1.884   0.743  0.1154  0.4719  0.9256
  303SOL    HW2  909   1.578   1.881   0.588 -0.6560  0.9392  0.6614
  304SOL     OW  910   1.491   1.918   2.371  0.4563 -0.4711 -0.6925
  304SOL    HW1  911   1.453   1.836   2.413 -0.1251  0.2014  0.1195
  304SOL    HW2  912   1.439   1.941   2.288  0.0256 -0.3916 -0.4004
  305SOL     OW  913   2.385   1.116   1.314 -0.2092  0.2772 -0.0032
  305SOL    HW1  914   2.288   1.125   1.289 -0.0895 -0.5588 -0.8512
  305SOL    HW2  915   2.410   1.019   1.315 -0.0520  0.2607  2.9414
  306SOL     OW  916   1.100   0.718   0.655  0.4123  0.3343 -0.6852
  306SOL    HW1  917   1.054   0.742   0.570 -1.2852 -0.8374 -0.1403
  306SOL    HW2  918   1.032   0.696   0.725  1.7244  2.1618  1.2929
  307SOL     OW  919   2.312   0.362   0.592  0.7076  0.5540 -0.1994
  307SOL    HW1  920   2.404   0.330   0.614 -0.2239 -1.5585  0.8543
  307SOL    HW2  921   2.304   0.371   0.492  1.6939 -0.4070 -0.3892
  308SOL     OW  922   2.250   1.241   1.569 -0.7532 -0.4991  0.2127
  308SOL    HW1  923   2.212   1.288   1.648  0.0586  0.4347  0.0586
  308SOL    HW2  924   2.339   1.202   1.593 -0.9098 -0.9854  0.0139
  309SOL     OW  925   0.041   1.690   1.549  0.0934 -0.1236  0.4036
  309SOL    HW1  926   0.078   1.744   1.625  0.2860 -0.2724  0.4151
  309SOL    HW2  927  -0.056   1.672   1.565 -0.8779  2.9526 -1.0987
  310SOL     OW  928   1.395   2.443   0.246 -0.3118  0.0066  0.4388
  310SOL    HW1  929   1.450   2.363   0.272  0.0498  0.0438 -0.1999
  310SOL    HW2  930   1.306   2.413   0.211 -0.5821 -0.0669  1.1719
  311SOL     OW  931   1.296   0.180   1.768  0.5804  0.9573  0.1223
  311SOL    HW1  932   1.305   0.236   1.851  0.7243  1.2020 -0.0575
  311SOL    HW2  933   1.361   0.104   1.772 -0.4863  0.0655  0.9524
  312SOL     OW  934   1.735   1.483   1.180  0.0395 -0.0028  0.2609
  312SOL    HW1  935   1.657   1.422   1.165 -0.0568  0.3564 -0.7542
  312SOL    HW2  936   1.791   1.486   1.098  2.0689 -1.5359  1.5013
  313SOL     OW  937   2.299   1.189   0.056 -0.4562  0.0596 -0.5939
  313SOL    HW1  938   2.247   1.209   0.139  0.6308 -0.5219  0.2482
  313SOL    HW2  939   2.245   1.130  -0.004 -1.4549  0.9023 -0.5540
  314SOL     OW  940   0.667   1.891   0.909  0.3087 -0.2945 -0.0829
  314SOL    HW1  941   0.674   1.851   1.000 -1.2731  0.2018  0.2928
  314SOL    HW2  942   0.588   1.952   0.905  1.3407  1.0615 -1.2957
  315SOL     OW  943   1.260   0.716   1.201 -0.3361 -0.6322  0.5802
  315SOL    HW1  944   1.336   0.756   1.252  0.1102  1.9118 -1.8435
  315SOL    HW2  945   1.181   0.708   1.262  0.7300  0.3613  2.1840
  316SOL     OW  946   1.962   0.623   0.014  0.2418 -0.3834 -0.4616
  316SOL    HW1  947   2.053   0.654   0.040  0.5765 -1.8721  0.2441
  316SOL    HW2  948   1.942   0.536   0.059 -1.3243 -0.3516 -1.0209
  317SOL     OW  949   0.672   0.325   1.100  0.1559 -0.6051  0.4630
  317SOL    HW1  950   0.648   0.398   1.165  0.8064 -1.0800  1.2515
  317SOL    HW2  951   0.729   0.364   1.027 -1.9548  0.2972 -0.8178
  318SOL     OW  952   0.691   0.476   0.263 -0.6196  0.1247  0.4284
  318SOL    HW1  953   0.649   0.459   0.352 -0.6219  0.2771  0.4555
  318SOL    HW2  954   0.790   0.467   0.270 -0.7096 -1.3106  0.1342
  319SOL     OW  955   1.001   0.251   0.112  0.0566  0.4234 -0.5899
  319SOL    HW1  956   0.982   0.258   0.014  1.0584 -0.3143 -0.8534
  319SOL    HW2  957   0.943   0.181   0.152  1.4720 -1.1721 -1.2070
  320SOL     OW  958   1.885   0.976   1.994  0.0135  0.3482  0.0366
  320SOL    HW1  959   1.906   0.909   2.066 -1.3299  1.5474  1.6289
  320SOL    HW2  960   1.810   1.035   2.024 -0.6743  0.8512 -2.4288
  321SOL     OW  961   0.808   1.698   0.161 -0.1470  0.8534 -0.0682
  321SOL    HW1  962   0.837   1.721   0.068 -1.2772  3.6703  0.1767
  321SOL    HW2  963   0.714   1.663   0.159 -0.4689  1.6925  0.0641
  322SOL     OW  964   1.835   2.328   2.329 -0.0626 -0.2561 -0.5345
  322SOL    HW1  965   1.771   2.267   2.283  1.4184 -2.7259  0.4873
  322SOL    HW2  966   1.828   2.317   2.428  1.2495  0.1124 -0.3739
  323SOL     OW  967   0.168   1.856   1.742 -0.3074  1.0567  0.3627
  323SOL    HW1  968   0.248   1.883   1.796 -0.0448 -0.6730  0.8788
  323SOL    HW2  969   0.087   1.854   1.801 -0.1028 -0.3936  0.6302
  324SOL     OW  970   2.170   0.901   0.335 -0.6169 -0.1193  0.4576
  324SOL    HW1  971   2.247   0.874   0.393 -0.1410  0.0691 -0.0817
  324SOL    HW2  972   2.088   0.851   0.364 -0.4760  0.2323  1.5265
  325SOL     OW  973   1.601   1.715   1.333  0.0288  0.0747 -0.0591
  325SOL    HW1  974   1.617   1.709   1.234 -1.2891 -0.6119 -0.2449
  325SOL    HW2  975   1.604   1.624   1.373  1.0485  0.3910  0.6459
  326SOL     OW  976   2.118   1.282   0.821 -0.2045  0.0529 -0.5386
  326SOL    HW1  977   2.133   1.309   0.916 -0.3601 -0.1259 -0.4621
  326SOL    HW2  978   2.055   1.347   0.778  2.7267  2.4021 -1.6431
  327SOL     OW  979   1.912   0.241   1.992  0.0506 -0.0686  1.0767
  327SOL    HW1  980   1.987   0.300   2.021  1.5384 -0.2400 -2.0624
  327SOL    HW2  981   1.834   0.297   1.966 -0.5111  0.1689  3.1114
  328SOL     OW  982   0.298   0.165   1.125 -0.0829 -0.4649  0.2678
  328SOL    HW1  983   0.349   0.113   1.193 -0.3927 -3.7873 -1.8244
  328SOL    HW2  984   0.236   0.103   1.076 -0.5061  1.9187 -2.4485
  329SOL     OW  985   2.133   0.380   2.082 -0.1672 -0.5753 -0.2111
  329SOL    HW1  986   2.230   0.356   2.090  0.1889  0.9989  0.8858
  329SOL    HW2  987   2.123   0.459   2.021 -0.8714 -1.2428 -0.9808
  330SOL     OW  988   0.955   2.059   1.992  0.0803  0.4619 -0.3509
  330SOL    HW1  989   1.007   1.980   2.024 -0.0690  0.5248  0.0533
  330SOL    HW2  990   0.886   2.029   1.926  0.7234  0.3976 -1.0073
  331SOL     OW  991   1.139   1.867   0.294 -0.4014  0.1484 -0.0675
  331SOL    HW1  992   1.190   1.854   0.379  1.8795 -2.3326 -1.6519
  331SOL    HW2  993   1.041   1.872   0.314  0.0823  0.0313  2.7078
  332SOL     OW  994   2.095   1.533   0.448  0.7528 -0.1026  0.1783
  332SOL    HW1  995   2.104   1.540   0.547  0.8672 -0.0154  0.1625
  332SOL    HW2  996   2.180   1.500   0.408  0.1757 -1.7730  0.2551
  333SOL     OW  997   0.997   2.381   1.244 -0.2935 -0.1663 -0.1362
  333SOL    HW1  998   0.942   2.362   1.163  0.1738  0.2093 -0.5410
  333SOL    HW2  999   0.959   2.461   1.292 -0.2515 -0.0679 -0.2690
  334SOL     OW 1000   1.201   2.349   1.410  0.1939  0.5395 -0.4208
  334SOL    HW1 1001   1.228   2.254   1.391 -0.1850  0.2122  0.5845
  334SOL    HW2 1002   1.129   2.376   1.346 -1.6059 -0.7994  0.9241
  335SOL     OW 1003   0.868   0.848   1.505 -0.1981  0.6052 -0.2943
  335SOL    HW1 1004   0.770   0.828   1.512 -0.0437 -0.5694 -1.0647
  335SOL    HW2 1005   0.893   0.918   1.571 -1.5886  1.0427 -0.1932
  336SOL     OW 1006   1.527   1.074   1.844  0.3958 -0.3080 -0.3406
  336SOL    HW1 1007   1.571   1.007   1.785 -0.4887 -0.5368 -0.7553
  336SOL    HW2 1008   1.587   1.094   1.922  0.2629 -2.3458  0.3494
  337SOL     OW 1009   2.166   0.285   1.804  0.3549  0.2523 -0.6763
  337SOL    HW1 1010   2.210   0.232   1.732  0.8768  0.1652 -0.2969
  337SOL    HW2 1011   2.193   0.249   1.893  0.8490  1.2386 -0.4098
  338SOL     OW 1012   1.915   1.529   0.986  0.4416  0.0269  0.6774
  338SOL    HW1 1013   1.995   1.469   0.986  0.2776 -0.1904  0.1640
  338SOL    HW2 1014   1.945   1.623   0.966  0.5445 -0.0855  0.3017
  339SOL     OW 1015   2.217   0.055   1.200  0.5443  0.0141 -0.5539
  339SOL    HW1 1016   2.164   0.138   1.182  1.5745  0.9030  0.4024
  339SOL    HW2 1017   2.159  -0.012   1.247  0.1500  0.8151  0.1118
  340SOL     OW 1018   2.165   1.328   1.089 -0.6629 -0.4048  0.4868
  340SOL    HW1 1019   2.211   1.279   1.163  0.4844 -0.4821 -0.2494
  340SOL    HW2 1020   2.190   1.425   1.093  0.6673 -0.6739 -0.7046
  341SOL     OW 1021   0.210   0.255   1.566  0.0131 -0.3201  0.7150
  341SOL    HW1 1022   0.193   0.345   1.527 -0.1120  0.0715  1.6485
  341SOL    HW2 1023   0.158   0.186   1.515  0.8563 -0.0135 -0.6117
  342SOL     OW 1024   0.099   0.600   1.946 -0.0229 -0.6904 -0.1655
  342SOL    HW1 1025   0.140   0.670   1.887 -1.9626  0.0111 -0.7404
  342SOL    HW2 1026   0.024   0.554   1.897 -2.4256  0.6470  2.0321
  343SOL     OW 1027   1.196   0.386   1.948  0.2032 -0.5861 -0.1849
  343SOL    HW1 1028   1.180   0.394   2.046  1.1039  0.7054 -0.1145
  343SOL    HW2 1029   1.109   0.395   1.899 -0.2799 -1.4767  0.4910
  344SOL     OW 1030   1.663   0.167   0.686 -0.3151 -0.0244 -0.7151
  344SOL    HW1 1031   1.754   0.163   0.647 -0.8439  0.6625 -2.0701
  344SOL    HW2 1032   1.597   0.125   0.623 -0.8514 -1.1570  0.5511
  345SOL     OW 1033   0.673   1.409   1.384 -0.6251 -0.7097 -0.1865
  345SOL    HW1 1034   0.579   1.442   1.385 -0.7104 -0.9193  1.1665
  345SOL    HW2 1035   0.736   1.485   1.397 -0.6267 -0.6245 -0.6694
  346SOL     OW 1036   1.628   2.285   0.793  0.3228 -0.3733 -0.3676
  346SOL    HW1 1037   1.651   2.308   0.699  1.6164  0.0616  0.0408
  346SOL    HW2 1038   1.707   2.244   0.839  0.4427  1.3835  1.1373
  347SOL     OW 1039   0.208   1.760   0.055 -0.3151  0.5271  0.3515
  347SOL    HW1 1040   0.258   1.742  -0.030 -0.0853 -1.0418  0.7950
  347SOL    HW2 1041   0.267   1.813   0.117 -0.0753  0.7095 -0.0232
  348SOL     OW 1042   2.213   1.999   1.891 -0.1996  0.5326 -0.1236
  348SOL    HW1 1043   2.242   2.065   1.822  0.3482  0.6729  0.2345
  348SOL    HW2 1044   2.117   1.975   1.876 -0.6948  2.1045  0.2581
  349SOL     OW 1045   0.501   1.587   2.263 -0.3568  0.2337 -0.5275
  349SOL    HW1 1046   0.573   1.562   2.198  0.1815  0.1019  0.1068
  349SOL    HW2 1047   0.455   1.670   2.231  1.2279  1.3293 -0.1005
  350SOL     OW 1048   2.185   1.607   1.067  0.9137  0.0420 -0.2306
  350SOL    HW1 1049   2.223   1.681   1.012 -1.2992  0.9258 -0.6668
  350SOL    HW2 1050   2.137   1.645   1.146  0.9712 -1.0200  0.3376
  351SOL     OW 1051   0.382   0.520   0.675 -0.1133 -0.1735 -0.0876
  351SOL    HW1 1052   0.322   0.485   0.747 -0.5764 -0.5369 -0.6424
  351SOL    HW2 1053   0.359   0.616   0.658  1.9569  0.8435  2.2665
  352SOL     OW 1054   2.403   0.836   1.333  0.2779 -0.6614  0.1112
  352SOL    HW1 1055   2.454   0.766   1.282  0.3416 -0.9463  0.5510
  352SOL    HW2 1056   2.305   0.820   1.323  0.2458  0.3314 -1.3453
  353SOL     OW 1057   1.314   0.572   0.726  0.1751 -0.4854  0.1538
  353SOL    HW1 1058   1.241   0.630   0.691 -0.1315 -0.4906  0.7641
  353SOL    HW2 1059   1.342   0.603   0.817  1.4286 -0.0596 -0.3503
  354SOL     OW 1060   2.431   0.250   1.940 -0.2288  0.9605 -0.1982
  354SOL    HW1 1061   2.396   0.192   2.013 -0.6935  1.4025 -0.0611
  354SOL    HW2 1062   2.530   0.242   1.935 -0.4382 -1.7723 -1.8335
  355SOL     OW 1063   1.631   2.145   1.945 -1.1648 -1.0282  0.1742
  355SOL    HW1 1064   1.662   2.090   1.868 -2.1766 -2.2190  0.5774
  355SOL    HW2 1065   1.684   2.230   1.950  1.5328 -2.6031  0.4131
  356SOL     OW 1066   0.490   2.466   2.236  0.2863 -0.0493  0.5850
  356SOL    HW1 1067   0.527   2.417   2.157 -0.2752  0.7019 -0.1477
  356SOL    HW2 1068   0.446   2.400   2.298 -0.8013 -0.4404 -0.5769
  357SOL     OW 1069   0.030   1.116   1.727 -0.4634  0.5026 -0.1338
  357SOL    HW1 1070  -0.036   1.042   1.722  0.1162  0.0589 -1.4587
  357SOL    HW2 1071   0.094   1.099   1.802 -0.7827  0.0522  0.0353
  358SOL     OW 1072   0.806   1.086   1.025  0.2343 -0.1683  0.0415
  358SOL    HW1 1073   0.819   1.024   1.103 -0.5443  0.7256  0.9125
  358SOL    HW2 1074   0.883   1.077   0.962  0.0705 -2.1263  0.0597
  359SOL     OW 1075   0.885   0.774   0.468 -0.3607 -0.8372  0.1566
  359SOL    HW1 1076   0.791   0.747   0.491  0.2232 -2.3288  0.9613
  359SOL    HW2 1077   0.905   0.862   0.511  0.1729 -2.8009  4.4641
  360SOL     OW 1078   0.275   1.351   0.749 -0.3066 -0.4831  0.1962
  360SOL    HW1 1079   0.189   1.319   0.788 -1.6660  2.3674 -0.2044
  360SOL    HW2 1080   0.344   1.358   0.821 -0.8311 -1.4602  0.8038
  361SOL     OW 1081   0.905   0.506   1.324 -0.3678 -0.2184  0.4537
  361SOL    HW1 1082   0.975   0.564   1.366 -0.3122  0.4113 -0.4876
  361SOL    HW2 1083   0.944   0.457   1.246 -0.7136 -0.6566  0.5495
  362SOL     OW 1084   1.904   2.118   1.376 -0.4017 -0.1881 -0.3879
  362SOL    HW1 1085   1.870   2.173   1.452  1.2548 -0.6334  0.7227
  362SOL    HW2 1086   1.928   2.026   1.409 -2.0773 -1.2616 -1.9816
  363SOL     OW 1087   0.445   1.843   0.191  0.1692 -0.2465 -0.5277
  363SOL    HW1 1088   0.428   1.789   0.274 -0.1153  0.2554 -0.2569
  363SOL    HW2 1089   0.480   1.783   0.119 -2.1231 -1.2046 -0.9125
  364SOL     OW 1090   2.100   0.879   1.341 -0.1238 -0.4969 -0.4698
  364SOL    HW1 1091   2.016   0.848   1.296 -1.4699  0.4148  1.2884
  364SOL    HW2 1092   2.109   0.978   1.330  0.2849 -0.4707  0.0425
  365SOL     OW 1093   1.528   1.105   0.176 -0.1170  0.6646  0.4362
  365SOL    HW1 1094   1.530   1.034   0.247  1.8904  1.6067  1.4130
  365SOL    HW2 1095   1.488   1.068   0.092 -1.6357 -0.7782  1.7232
  366SOL     OW 1096   0.026   0.582   0.235 -0.4789 -0.7388 -0.1027
  366SOL    HW1 1097   0.053   0.569   0.330 -0.6607  0.5156  0.1411
  366SOL    HW2 1098  -0.063   0.628   0.232  0.5665  1.4036 -0.8123
  367SOL     OW 1099   1.752   0.423   1.901  0.0552  0.9685  0.1663
  367SOL    HW1 1100   1.702   0.447   1.817  0.8884 -0.2515 -0.7182
  367SOL    HW2 1101   1.785   0.507   1.945  1.1955  1.5955 -1.7558
  368SOL     OW 1102   0.436   0.409   1.372 -0.5265  0.0549  0.2617
  368SOL    HW1 1103   0.368   0.439   1.438  0.5793  0.2696  1.3504
  368SOL    HW2 1104   0.528   0.427   1.408  0.2431 -3.7465  0.5988
  369SOL     OW 1105   0.654   1.786   1.180 -1.1417  1.2354 -0.4294
  369SOL    HW1 1106   0.670   1.870   1.232 -2.0870  1.0423  0.2033
  369SOL    HW2 1107   0.738   1.733   1.175 -0.9863  1.3362  0.7995
  370SOL     OW 1108   0.964   1.622   2.203  0.8577 -0.0550  0.4225
  370SOL    HW1 1109   0.972   1.535   2.252  0.8202  0.2971  1.0669
  370SOL    HW2 1110   0.884   1.620   2.143  1.0188 -0.5671  0.2235
  371SOL     OW 1111   2.245   2.010   0.379  0.0904 -0.1658  0.1978
  371SOL    HW1 1112   2.245   1.913   0.352  0.3715 -0.9991  2.8673
  371SOL    HW2 1113   2.306   2.061   0.320  0.4501 -1.7554 -0.8781
  372SOL     OW 1114   1.814   2.127   0.923  0.0295  0.1070 -0.3592
  372SOL    HW1 1115   1.909   2.158   0.923 -0.7478  2.7567 -0.5647
  372SOL    HW2 1116   1.785   2.110   1.017  0.5283 -0.1070 -0.2394
  373SOL     OW 1117   0.660   1.340   1.919  0.0362 -0.0418 -0.0966
  373SOL    HW1 1118   0.627   1.423   1.875 -0.1585 -0.8697 -1.5693
  373SOL    HW2 1119   0.719   1.290   1.855 -0.6060 -1.5026  0.4171
  374SOL     OW 1120   1.028   0.844   2.374 -0.3463 -0.0542  0.6881
  374SOL    HW1 1121   1.033   0.817   2.470 -1.3798  0.4246  0.8925
  374SOL    HW2 1122   1.068   0.935   2.363 -0.9218  0.2208  0.8157
  375SOL     OW 1123   0.693   0.023   1.495  0.5865  0.0439  0.4454
  375SOL    HW1 1124   0.674   0.107   1.544  0.6872  0.5601 -0.3837
  375SOL    HW2 1125   0.755   0.041   1.419 -0.9654 -0.3648 -0.9992
  376SOL     OW 1126   1.965   2.288   0.446  0.6068  0.5584  0.6539
  376SOL    HW1 1127   1.973   2.331   0.357  2.6243 -0.9538  0.0255
  376SOL    HW2 1128   1.998   2.351   0.517  2.2282  0.6098 -0.0926
  377SOL     OW 1129   1.804   2.389   1.149 -0.1178 -0.2508  0.2383
  377SOL    HW1 1130   1.892   2.391   1.196  0.2854  0.9167 -0.5168
  377SOL    HW2 1131   1.777   2.294   1.134  0.3028 -0.6367  1.7504
  378SOL     OW 1132   0.540   2.130   2.418 -0.5943  0.0023 -0.2384
  378SOL    HW1 1133   0.631   2.119   2.378 -1.1167 -2.1726 -1.0155
  378SOL    HW2 1134   0.545   2.120   2.517  0.1285  0.9716 -0.1621
  379SOL     OW 1135   0.156   0.036   1.933 -0.0968  0.0031  0.1594
  379SOL    HW1 1136   0.207   0.117   1.903 -1.5319  1.0520  0.4644
  379SOL    HW2 1137   0.124   0.049   2.026  0.1423 -1.1825  0.4226
  380SOL     OW 1138   0.556   1.163   2.123  0.0512  0.3209  0.2933
  380SOL    HW1 1139   0.576   1.251   2.080 -1.1235  0.6088  0.3182
  380SOL    HW2 1140   0.598   1.089   2.070  0.0577  0.8035 -0.3841
  381SOL     OW 1141   0.896   2.290   2.136 -0.1839  0.0667 -0.0553
  381SOL    HW1 1142   0.964   2.360   2.116  0.0494 -0.2734 -0.4774
  381SOL    HW2 1143   0.921   2.205   2.090 -1.1503  0.0745 -0.6263
  382SOL     OW 1144   1.703   2.323   0.530 -0.0553  0.1244  0.9049
  382SOL    HW1 1145   1.788   2.292   0.488  0.1416 -0.0688  1.4360
  382SOL    HW2 1146   1.628   2.266   0.497 -0.1803  1.0426 -0.4808
  383SOL     OW 1147   1.933   0.207   0.598  0.2548 -0.3515 -0.2769
  383SOL    HW1 1148   1.952   0.251   0.686 -1.4997 -0.6272  0.2822
  383SOL    HW2 1149   1.969   0.113   0.599 -2.0571 -1.3063  1.2353
  384SOL     OW 1150   1.489   2.371   1.014  0.4641 -0.3667 -0.3899
  384SOL    HW1 1151   1.429   2.298   1.044 -0.0138  0.4696  0.7759
  384SOL    HW2 1152   1.544   2.340   0.936  0.9543 -2.2720  0.6496
  385SOL     OW 1153   1.609   1.295   1.683  0.1679 -0.0088 -0.3145
  385SOL    HW1 1154   1.562   1.212   1.713  0.2840 -0.0884 -0.3532
  385SOL    HW2 1155   1.622   1.356   1.760 -0.4472  0.2325 -0.3948
  386SOL     OW 1156   1.713   1.488   1.859 -0.2013  0.0737 -0.1900
  386SOL    HW1 1157   1.731   1.446   1.948  0.3193  0.9551  0.1375
  386SOL    HW2 1158   1.799   1.520   1.819 -0.6743  1.9497  0.1703
  387SOL     OW 1159   1.088   2.120   1.041  0.3230  0.6325  0.3146
  387SOL    HW1 1160   1.034   2.107   0.958  1.3789  1.3764 -0.5264
  387SOL    HW2 1161   1.050   2.195   1.094  0.4982  1.1325 -0.2538
  388SOL     OW 1162   1.627   1.519   0.891  0.1550  0.3437 -0.0806
  388SOL    HW1 1163   1.726   1.528   0.903  0.7891 -2.0733 -2.5429
  388SOL    HW2 1164   1.595   1.438   0.939  0.1513 -1.0449 -2.2605
  389SOL     OW 1165   0.908   2.426   0.403  0.3508  0.5977 -0.0868
  389SOL    HW1 1166   0.891   2.455   0.308  0.0421 -0.7989 -0.4814
  389SOL    HW2 1167   0.833   2.456   0.461  0.0041  0.5277 -0.4917
  390SOL     OW 1168   1.561   0.210   2.061 -0.0976  0.0213  0.2451
  390SOL    HW1 1169   1.607   0.207   2.150  1.3538 -3.0472 -0.4860
  390SOL    HW2 1170   1.588   0.293   2.012  0.5273  0.8459  1.9250
  391SOL     OW 1171   1.002   1.085   0.836  0.1777 -0.0533  0.3326
  391SOL    HW1 1172   0.983   1.046   0.746  0.8662 -0.8891  0.5392
  391SOL    HW2 1173   1.099   1.108   0.841  0.1251  0.0499  0.8422
  392SOL     OW 1174   0.923   1.011   0.590  0.4868 -0.4366  0.0008
  392SOL    HW1 1175   0.856   1.084   0.597 -0.4436 -1.1749 -0.9228
  392SOL    HW2 1176   1.006   1.045   0.547 -0.0593  0.0027 -0.7169
  393SOL     OW 1177   1.369   1.922   2.134  0.7985  0.1961  0.4623
  393SOL    HW1 1178   1.341   1.983   2.060 -1.8008 -0.1219  1.0634
  393SOL    HW2 1179   1.390   1.831   2.097  0.4349  0.2937  0.0171
  394SOL     OW 1180   2.009   0.030   1.606  0.6164  0.7415 -0.0222
  394SOL    HW1 1181   1.947   0.108   1.607  0.8396  0.9862 -1.9895
  394SOL    HW2 1182   2.101   0.061   1.584  0.9283  0.0556  0.2951
  395SOL     OW 1183   0.894   1.670   1.107 -0.1206 -0.0095 -0.6112
  395SOL    HW1 1184   0.968   1.733   1.083  1.7458 -1.2505  1.4290
  395SOL    HW2 1185   0.922   1.577   1.086 -1.9487 -0.3809 -1.5671
  396SOL     OW 1186   0.182   0.062   2.268 -0.0983  0.6382  0.8811
  396SOL    HW1 1187   0.139  -0.029   2.270 -0.6617  0.8251 -0.8535
  396SOL    HW2 1188   0.281   0.052   2.268 -0.1330  0.0963  2.1080
  397SOL     OW 1189   0.958   0.742   0.183 -0.2597 -0.6074 -0.0480
  397SOL    HW1 1190   0.933   0.751   0.279  0.7111 -0.6968  0.2217
  397SOL    HW2 1191   1.001   0.653   0.168  0.4081 -0.2439 -0.3649
  398SOL     OW 1192   0.815   0.451   0.574  0.2001 -0.3524 -0.2037
  398SOL    HW1 1193   0.785   0.547   0.575  0.5293 -0.1708  2.6612
  398SOL    HW2 1194   0.883   0.438   0.502  0.5050  1.7216 -0.3525
  399SOL     OW 1195   0.659   0.514   1.464  0.1119 -0.3936 -0.0284
  399SOL    HW1 1196   0.750   0.509   1.424 -0.0110 -0.8991 -0.2491
  399SOL    HW2 1197   0.628   0.609   1.463  0.9381 -0.1027  0.7343
  400SOL     OW 1198   1.231   2.052   1.719  0.6784  0.3279 -0.9489
  400SOL    HW1 1199   1.264   2.097   1.801 -2.0545  0.0921  0.3754
  400SOL    HW2 1200   1.195   1.962   1.742 -0.8347  0.5557 -2.2606
  401SOL     OW 1201   1.794   1.424   2.111  0.0227  0.4565 -0.3629
  401SOL    HW1 1202   1.724   1.458   2.174  0.0696  1.0419 -0.6203
  401SOL    HW2 1203   1.884   1.450   2.145  0.0267  1.2069 -0.9123
  402SOL     OW 1204   2.354   0.890   1.766  0.4897 -0.1288 -0.1313
  402SOL    HW1 1205   2.292   0.857   1.695  0.7778 -1.4119  0.1888
  402SOL    HW2 1206   2.320   0.863   1.856  0.7535  0.4273  0.1416
  403SOL     OW 1207   1.686   0.767   2.303 -0.2118 -0.7837 -0.3264
  403SOL    HW1 1208   1.626   0.696   2.267 -0.8795 -0.0499 -0.6803
  403SOL    HW2 1209   1.699   0.753   2.401 -1.5515 -0.5379 -0.1017
  404SOL     OW 1210   1.496   0.882   0.352  0.5454 -0.0889  0.2579
  404SOL    HW1 1211   1.440   0.897   0.433  0.0981 -0.5264  0.0398
  404SOL    HW2 1212   1.559   0.806   0.369  0.8544  0.2034  0.4000
  405SOL     OW 1213   0.090   0.356   0.700 -0.2503  0.2164  0.1008
  405SOL    HW1 1214   0.083   0.258   0.718 -0.5994 -0.0065 -1.1777
  405SOL    HW2 1215   0.150   0.398   0.768 -0.2862 -0.8387  0.8032
  406SOL     OW 1216   0.579   1.972   1.514  0.2996  0.0376 -0.1940
  406SOL    HW1 1217   0.614   1.964   1.421 -1.1489  0.6183 -0.8065
  406SOL    HW2 1218   0.510   2.044   1.518 -0.7400 -0.9830  0.9975
  407SOL     OW 1219   1.011   1.835   1.748 -0.0082  0.4417  0.2549
  407SOL    HW1 1220   0.916   1.825   1.720 -0.4593 -0.6542  2.0668
  407SOL    HW2 1221   1.020   1.818   1.846  1.7908  2.3217  0.4766
  408SOL     OW 1222   1.152   1.103   0.426 -0.5776  0.4308 -0.1037
  408SOL    HW1 1223   1.110   1.188   0.459 -0.4748  0.0988  0.8990
  408SOL    HW2 1224   1.239   1.088   0.474 -0.5676 -0.2212 -0.3183
  409SOL     OW 1225   2.000   1.015   1.744 -0.1799  0.2407  0.3451
  409SOL    HW1 1226   1.931   0.999   1.814  0.1597 -1.1288  0.3979
  409SOL    HW2 1227   2.075   1.069   1.782 -0.1244 -0.2722  0.9768
  410SOL     OW 1228   2.281   0.106   1.591 -0.0792  0.0375 -0.2877
  410SOL    HW1 1229   2.335   0.039   1.642 -1.0376 -0.3119  0.3060
  410SOL    HW2 1230   2.316   0.114   1.498  0.4364 -0.8310 -0.1780
  411SOL     OW 1231   1.166   0.412   2.200 -0.3754 -0.5135 -0.5288
  411SOL    HW1 1232   1.082   0.466   2.202 -1.7064 -2.4967  1.6516
  411SOL    HW2 1233   1.233   0.452   2.263 -0.1787  0.2363 -1.1874
  412SOL     OW 1234   0.103   0.390   1.267  0.5287 -0.0072 -0.6404
  412SOL    HW1 1235   0.052   0.448   1.203 -1.1227  0.1456  0.7327
  412SOL    HW2 1236   0.175   0.341   1.218  1.6871  2.7755 -1.9879
  413SOL     OW 1237   0.921   0.413   1.873 -0.2100 -0.5351 -0.0535
  413SOL    HW1 1238   0.907   0.389   1.778  0.7042 -0.6860 -0.1623
  413SOL    HW2 1239   0.850   0.477   1.903 -1.5789 -1.8864 -0.2962
  414SOL     OW 1240   1.214   1.564   0.399 -0.2888  0.0561  0.5037
  414SOL    HW1 1241   1.125   1.558   0.353 -0.9324  1.8272  1.3927
  414SOL    HW2 1242   1.228   1.483   0.457 -1.8141  0.2065  1.1348
  415SOL     OW 1243   0.991   1.119   1.580  0.0478  0.5832  0.1875
  415SOL    HW1 1244   1.067   1.102   1.643  0.4825 -0.6086 -0.6088
  415SOL    HW2 1245   1.027   1.144   1.490 -0.5470  1.5793  0.2163
  416SOL     OW 1246   2.386   2.299   0.870 -0.6645 -0.1188 -0.2575
  416SOL    HW1 1247   2.431   2.258   0.950  0.4430  2.2706  0.4271
  416SOL    HW2 1248   2.412   2.249   0.788  0.6890 -0.7356  0.5151
  417SOL     OW 1249   0.148   0.751   1.736  0.1467 -0.1226  0.0300
  417SOL    HW1 1250   0.080   0.823   1.751 -0.0631 -0.6430  1.8020
  417SOL    HW2 1251   0.136   0.713   1.645 -2.8032 -1.0338  0.6710
  418SOL     OW 1252   0.737   1.328   1.129  0.0317 -0.4044  0.2251
  418SOL    HW1 1253   0.758   1.230   1.122  0.5379 -0.3794  1.2430
  418SOL    HW2 1254   0.716   1.351   1.224  0.8245  0.6512  0.1610
  419SOL     OW 1255   0.451   0.101   0.729 -0.1245 -0.0381 -0.1798
  419SOL    HW1 1256   0.424   0.144   0.643  1.5185 -0.9156 -1.1795
  419SOL    HW2 1257   0.468   0.171   0.798 -0.1372  0.7524 -0.9669
  420SOL     OW 1258   1.658   2.118   2.214  0.3588 -0.0007 -0.1655
  420SOL    HW1 1259   1.632   2.135   2.119  1.0102  0.0287 -0.3434
  420SOL    HW2 1260   1.579   2.083   2.265  0.5862 -2.2833 -1.2887
  421SOL     OW 1261   1.185   0.633   1.728  0.1001 -0.1962  0.1628
  421SOL    HW1 1262   1.267   0.672   1.770  0.5766 -0.5544 -0.4152
  421SOL    HW2 1263   1.206   0.542   1.691 -0.4918 -0.1907 -0.2099
  422SOL     OW 1264   0.798   0.947   0.117  0.0508  0.5694 -0.2337
  422SOL    HW1 1265   0.703   0.920   0.101  0.0374  1.6586 -2.2541
  422SOL    HW2 1266   0.854   0.866   0.134 -1.1778 -0.0938  0.8446
  423SOL     OW 1267   2.183   1.200   1.976 -0.2795 -0.3872 -0.2485
  423SOL    HW1 1268   2.170   1.243   2.065  0.8501 -0.1477 -0.1853
  423SOL    HW2 1269   2.156   1.264   1.904 -2.2233 -0.9568 -0.0917
  424SOL     OW 1270   2.134   0.699   0.751 -0.5621 -0.0994 -0.2075
  424SOL    HW1 1271   2.139   0.730   0.846  0.6183 -2.3837  0.5244
  424SOL    HW2 1272   2.138   0.600   0.747  1.2523 -0.0192 -2.7536
  425SOL     OW 1273   2.290   0.079   0.272 -0.2909 -0.1938  0.0865
  425SOL    HW1 1274   2.254  -0.003   0.226 -0.7350  0.0758 -0.0588
  425SOL    HW2 1275   2.294   0.063   0.371  0.0552 -0.5505  0.0154
  426SOL     OW 1276   1.680   1.171   2.055 -0.1936  0.6168 -0.7846
  426SOL    HW1 1277   1.644   1.153   2.146 -0.7347  0.0498 -1.0980
  426SOL    HW2 1278   1.722   1.261   2.052  0.3526  0.4011  0.1801
  427SOL     OW 1279   1.559   1.726   1.053 -0.5039 -0.0857  0.6283
  427SOL    HW1 1280   1.578   1.648   0.994  0.6268  0.4406  0.2486
  427SOL    HW2 1281   1.575   1.811   1.002 -2.4423  0.4322  0.7961
  428SOL     OW 1282   1.963   1.645   1.306  0.1481 -0.3690  0.0418
  428SOL    HW1 1283   1.935   1.713   1.374 -1.5332 -0.7698 -0.2156
  428SOL    HW2 1284   1.891   1.634   1.238  2.0742  0.6116 -2.3229
  429SOL     OW 1285   1.744   2.205   0.107  0.0802  0.5114 -0.1229
  429SOL    HW1 1286   1.658   2.154   0.115 -0.7491  1.4606 -2.1290
  429SOL    HW2 1287   1.819   2.141   0.091 -0.6480 -0.2150 -0.7491
  430SOL     OW 1288   1.754   1.006   0.502 -0.1299  0.2773 -0.6512
  430SOL    HW1 1289   1.828   0.954   0.545  0.1653  1.3461  0.1775
  430SOL    HW2 1290   1.666   0.962   0.521  0.0463  0.4458  0.6102
  431SOL     OW 1291   0.613   2.052   0.204 -0.2542  0.0219  0.3406
  431SOL    HW1 1292   0.548   1.976   0.194  0.2674 -0.1898 -2.0999
  431SOL    HW2 1293   0.703   2.016   0.226 -0.0198 -0.1031 -0.7588
  432SOL     OW 1294   1.295   1.678   1.180 -0.2753  0.2625 -0.1863
  432SOL    HW1 1295   1.388   1.686   1.145  0.5214 -1.1834  1.4650
  432SOL    HW2 1296   1.293   1.705   1.276 -1.7568  1.1087 -0.4316
  433SOL     OW 1297   0.975   1.519   0.271  0.7745  0.1519  0.1916
  433SOL    HW1 1298   0.925   1.604   0.255 -0.5909 -0.0245  2.8933
  433SOL    HW2 1299   0.922   1.442   0.236  1.0175  0.2479 -0.3941
  434SOL     OW 1300   0.700   0.908   2.237 -0.2817 -0.2480 -0.1703
  434SOL    HW1 1301   0.775   0.934   2.298  0.2546 -1.0192 -0.4875
  434SOL    HW2 1302   0.727   0.922   2.142 -0.6728 -0.1985 -0.2791
  435SOL     OW 1303   1.252   1.548   1.942  0.0773  0.2982 -0.3388
  435SOL    HW1 1304   1.260   1.487   1.863  1.6788  1.1608 -0.8895
  435SOL    HW2 1305   1.155   1.573   1.955 -0.1125  1.3014 -2.9828
  436SOL     OW 1306   0.249   0.257   1.829  0.4475  0.6725  0.0526
  436SOL    HW1 1307   0.218   0.239   1.736 -1.4759  1.3806  0.4915
  436SOL    HW2 1308   0.277   0.352   1.837  1.1099  0.4760  0.0753
  437SOL     OW 1309   1.820   0.943   0.259  0.1206  0.3400  0.0678
  437SOL    HW1 1310   1.887   0.873   0.283  0.3806  0.1374 -1.1984
  437SOL    HW2 1311   1.767   0.967   0.341 -0.3788 -1.7486  0.4275
  438SOL     OW 1312   1.910   2.448   0.206 -0.0752  0.1473  0.7272
  438SOL    HW1 1313   1.852   2.369   0.183 -0.3645  0.4404  0.4488
  438SOL    HW2 1314   1.855   2.531   0.205  0.3815  0.4471  0.3317
  439SOL     OW 1315   1.386   2.419   2.254 -0.7893  0.2635  0.4021
  439SOL    HW1 1316   1.363   2.511   2.220  1.6247  0.0683 -2.0467
  439SOL    HW2 1317   1.307   2.383   2.304 -2.9465  2.4906 -1.0812
  440SOL     OW 1318   0.214   0.508   1.473 -0.2095  0.1444  0.4780
  440SOL    HW1 1319   0.177   0.464   1.391  1.0755  0.6916 -0.4283
  440SOL    HW2 1320   0.198   0.606   1.468  0.1986  0.2236  0.7124
  441SOL     OW 1321   2.178   2.061   2.171 -0.1141 -0.4373 -0.5354
  441SOL    HW1 1322   2.079   2.069   2.183 -0.2177 -0.3341 -1.3576
  441SOL    HW2 1323   2.197   2.023   2.080  0.5926 -0.8211 -0.2319
  442SOL     OW 1324   2.049   0.299   1.232  0.4224 -0.2194  0.7921
  442SOL    HW1 1325   2.077   0.353   1.311 -0.2192  2.2696 -0.5559
  442SOL    HW2 1326   1.949   0.290   1.232  0.3352  0.5705 -0.1516
  443SOL     OW 1327   1.750   0.797   1.044 -0.5508  0.6567  0.3935
  443SOL    HW1 1328   1.844   0.776   1.071  0.6248  0.4725 -3.3025
  443SOL    HW2 1329   1.717   0.727   0.981 -2.2793  2.0076 -0.2805
  444SOL     OW 1330   0.732   1.215   0.633  0.0830  0.4363  0.1323
  444SOL    HW1 1331   0.753   1.287   0.567  1.0526  0.5736  0.5748
  444SOL    HW2 1332   0.733   1.254   0.725 -0.5015  0.0848  0.2904
  445SOL     OW 1333   2.270   0.076   2.108 -0.2649 -0.3190  0.4008
  445SOL    HW1 1334   2.181   0.083   2.064 -0.4289 -2.8627  0.2060
  445SOL    HW2 1335   2.303  -0.018   2.104  1.5025  0.1275  2.3123
  446SOL     OW 1336   2.086   0.629   2.236 -0.5628 -0.5541 -0.5551
  446SOL    HW1 1337   2.058   0.614   2.331 -2.0030  1.1555 -0.6557
  446SOL    HW2 1338   2.104   0.541   2.192 -0.0152 -1.3805  1.2473
  447SOL     OW 1339   1.927   0.391   0.419  0.1038 -0.5900  0.3598
  447SOL    HW1 1340   1.923   0.305   0.470  1.8406 -0.5122  0.6784
  447SOL    HW2 1341   2.022   0.420   0.410 -0.4052  0.9534 -0.3377
  448SOL     OW 1342   1.334   1.778   1.426  0.3715  0.4378 -0.4205
  448SOL    HW1 1343   1.420   1.728   1.425  1.0263  1.3555  2.1447
  448SOL    HW2 1344   1.352   1.874   1.448 -1.1390  1.1411 -2.0189
  449SOL     OW 1345   0.995   1.404   1.017  0.3507  0.5992 -0.4476
  449SOL    HW1 1346   0.905   1.368   1.041  0.5257  0.0978 -0.5292
  449SOL    HW2 1347   0.986   1.469   0.941  0.0452  0.6467 -0.3725
  450SOL     OW 1348   0.617   0.830   0.814 -0.1664 -0.2912 -0.2781
  450SOL    HW1 1349   0.604   0.906   0.878 -0.6556 -0.8014  0.2497
  450SOL    HW2 1350   0.627   0.865   0.721 -0.2046  0.4236 -0.0198
  451SOL     OW 1351   0.748   1.187   0.003  0.3320 -0.2329 -0.2164
  451SOL    HW1 1352   0.660   1.170  -0.042  0.7249 -0.7807 -0.8051
  451SOL    HW2 1353   0.777   1.104   0.051  0.7568 -0.2186 -0.4434
  452SOL     OW 1354   0.943   1.580   1.876 -0.2585  0.2795 -0.2987
  452SOL    HW1 1355   0.951   1.531   1.790  1.2893  0.3249 -0.2173
  452SOL    HW2 1356   0.866   1.643   1.872  0.2292  0.8111 -1.9234
  453SOL     OW 1357   0.924   2.416   0.789 -0.0659  0.1140  0.2560
  453SOL    HW1 1358   0.957   2.508   0.769  1.6042 -0.3705  0.6324
  453SOL    HW2 1359   0.968   2.350   0.728  0.1399 -0.6411  1.1926
  454SOL     OW 1360   1.764   0.198   1.548  0.2413  0.5760  0.0550
  454SOL    HW1 1361   1.667   0.189   1.573  0.1728  0.2849 -0.3098
  454SOL    HW2 1362   1.809   0.261   1.612 -0.5069  1.7925 -0.5715
  455SOL     OW 1363   0.486   0.251   2.077  0.1667  0.2762  0.3657
  455SOL    HW1 1364   0.454   0.168   2.123  1.0579 -0.3788 -0.1714
  455SOL    HW2 1365   0.517   0.318   2.144  0.3184 -0.1938  0.7646
  456SOL     OW 1366   1.978   0.921   0.664 -0.3917 -0.0670 -0.1299
  456SOL    HW1 1367   2.014   0.845   0.718  0.0889 -0.5743 -1.1387
  456SOL    HW2 1368   2.054   0.978   0.633 -0.4835 -0.8098 -1.7819
  457SOL     OW 1369   2.409   1.120   0.527  0.3964  0.6134 -0.0932
  457SOL    HW1 1370   2.444   1.102   0.619  1.2813 -0.9418 -0.7041
  457SOL    HW2 1371   2.310   1.127   0.530  0.4372  0.9132  1.0278
  458SOL     OW 1372   2.344   0.900   0.124 -0.3093  0.4798 -0.0933
  458SOL    HW1 1373   2.323   0.992   0.090 -1.3309  0.6041  0.8215
  458SOL    HW2 1374   2.295   0.884   0.210 -0.4942 -1.0846 -0.4617
  459SOL     OW 1375   1.466   0.880   1.443 -0.3446 -0.0093 -0.3136
  459SOL    HW1 1376   1.494   0.959   1.390 -1.2371 -0.2762 -1.2123
  459SOL    HW2 1377   1.482   0.797   1.390 -2.4261 -0.1950 -0.7145
  460SOL     OW 1378   2.124   1.148   1.339  0.0262  0.4737 -0.1608
  460SOL    HW1 1379   2.182   1.176   1.415  1.2849  0.0445 -0.9397
  460SOL    HW2 1380   2.033   1.188   1.350  0.1024  0.2056  1.6928
  461SOL     OW 1381   1.613   0.866   1.694  0.2272 -0.6523 -0.0885
  461SOL    HW1 1382   1.568   0.879   1.606 -1.3495 -1.0388  0.6298
  461SOL    HW2 1383   1.712   0.857   1.680  0.2197  1.0708 -1.6292
  462SOL     OW 1384   0.342   1.059   1.129  0.4680 -0.1627  0.2509
  462SOL    HW1 1385   0.415   1.067   1.061  1.8232 -0.5113  1.6024
  462SOL    HW2 1386   0.356   1.128   1.201  0.9702 -1.8493  1.8407
  463SOL     OW 1387   1.628   2.455   1.907 -0.1856 -0.4977 -0.0471
  463SOL    HW1 1388   1.592   2.534   1.957 -1.7917 -0.2390 -1.5242
  463SOL    HW2 1389   1.712   2.423   1.951 -0.1648  1.2658  1.2901
  464SOL     OW 1390   1.392   0.759   1.843 -0.2968  0.0511 -0.3708
  464SOL    HW1 1391   1.368   0.825   1.915  0.6524 -0.5492  0.5183
  464SOL    HW2 1392   1.481   0.784   1.804  0.0581 -0.6825 -0.0409
  465SOL     OW 1393   1.447   0.315   0.087  0.5150 -0.0190  0.0683
  465SOL    HW1 1394   1.500   0.233   0.063  0.6039  0.0986 -0.1406
  465SOL    HW2 1395   1.372   0.289   0.148  0.5982 -0.2431  0.0778
  466SOL     OW 1396   0.209   1.891   1.323 -0.4213 -0.1792  0.0763
  466SOL    HW1 1397   0.268   1.810   1.325 -0.6512 -0.3754  2.4585
  466SOL    HW2 1398   0.153   1.890   1.241  3.1602  0.2691 -2.6307
  467SOL     OW 1399   0.065   1.060   1.075  0.1155  0.5081  0.5876
  467SOL    HW1 1400   0.158   1.056   1.112  0.5669  1.4227 -0.3892
  467SOL    HW2 1401   0.007   1.114   1.136  0.1473 -0.2974  1.3422
  468SOL     OW 1402   1.986   2.133   0.040  0.0347 -0.2035  0.4305
  468SOL    HW1 1403   1.983   2.049   0.095 -0.3774  0.0152  0.7462
  468SOL    HW2 1404   2.062   2.190   0.071  0.2630 -0.4175  0.2724
  469SOL     OW 1405   0.325   0.592   0.359 -0.4302  0.2769  0.6047
  469SOL    HW1 1406   0.327   0.659   0.433  1.4507  0.2892  0.5917
  469SOL    HW2 1407   0.266   0.515   0.385  0.3477  0.1843  2.2221
  470SOL     OW 1408   1.602   0.462   1.286 -0.2230 -0.0464 -0.0407
  470SOL    HW1 1409   1.666   0.389   1.262 -1.9385 -1.4113 -0.7228
  470SOL    HW2 1410   1.541   0.430   1.359  0.2032  1.4260  1.0029
  471SOL     OW 1411   1.257   1.416   1.109 -0.0204  0.5207  0.0387
  471SOL    HW1 1412   1.162   1.399   1.084 -0.8189  0.3683  2.7985
  471SOL    HW2 1413   1.272   1.514   1.120  0.3782  0.6020 -1.0995
  472SOL     OW 1414   1.407   0.442   0.517  0.0133 -0.0117  0.1213
  472SOL    HW1 1415   1.498   0.410   0.541 -0.4625  0.7111  3.2981
  472SOL    HW2 1416   1.367   0.491   0.594 -3.0047 -0.1056 -1.2271
  473SOL     OW 1417   0.514   2.290   0.306  0.1429 -0.0549  0.5390
  473SOL    HW1 1418   0.421   2.303   0.270  1.1143  2.1234 -1.4654
  473SOL    HW2 1419   0.553   2.207   0.269 -0.7498 -0.6295  0.8514
  474SOL     OW 1420   0.516   1.639   0.035 -0.5058 -0.0595 -0.5621
  474SOL    HW1 1421   0.520   1.614  -0.061  0.2525 -0.6652 -0.3872
  474SOL    HW2 1422   0.462   1.571   0.085  1.2816 -1.2519 -0.1403
  475SOL     OW 1423   1.432   0.019   1.492 -0.7266  0.0142 -0.6860
  475SOL    HW1 1424   1.432   0.004   1.591 -1.1018  1.2347 -0.4811
  475SOL    HW2 1425   1.357  -0.032   1.450 -1.4406  0.5914 -0.1408
  476SOL     OW 1426   1.536   0.727   1.233 -0.2891 -0.0752 -0.1703
  476SOL    HW1 1427   1.572   0.772   1.151  0.9353  1.0695  0.9461
  476SOL    HW2 1428   1.573   0.635   1.239 -0.4570 -0.1984 -0.9486
  477SOL     OW 1429   1.126   0.123   0.441 -0.1320  0.0258  0.3028
  477SOL    HW1 1430   1.106   0.171   0.527  0.8388 -0.4550  0.8126
  477SOL    HW2 1431   1.051   0.060   0.420 -0.4339  0.2339  0.7376
  478SOL     OW 1432   1.102   2.275   1.666 -0.1539 -0.2398 -0.7999
  478SOL    HW1 1433   1.139   2.184   1.685 -0.5066 -0.1298  0.5147
  478SOL    HW2 1434   1.127   2.303   1.573 -0.5297 -1.9101 -1.4303
  479SOL     OW 1435   1.130   1.290   2.180 -0.0123 -0.9690  0.1135
  479SOL    HW1 1436   1.220   1.295   2.138  0.5007 -1.9157  1.0640
  479SOL    HW2 1437   1.066   1.245   2.118  0.1606 -0.3281 -0.5478
  480SOL     OW 1438   2.091   1.968   1.617 -0.1810  0.3123 -0.4528
  480SOL    HW1 1439   2.111   2.063   1.638  1.2683  0.2773 -1.5565
  480SOL    HW2 1440   2.159   1.932   1.554  0.3598 -1.9731  1.2699
  481SOL     OW 1441   0.104   0.513   2.441  0.1453  0.2794 -0.1114
  481SOL    HW1 1442   0.070   0.566   2.518  3.7929  0.8777  1.2830
  481SOL    HW2 1443   0.108   0.416   2.466  0.8323  0.4045  0.2746
  482SOL     OW 1444   2.231   0.088   2.406 -0.0427  0.3446  0.5072
  482SOL    HW1 1445   2.253   0.128   2.317  0.4059  0.2594  0.5759
  482SOL    HW2 1446   2.225   0.160   2.475 -0.4599  0.4183  0.3977
  483SOL     OW 1447   1.978   2.013   0.454 -0.0821 -0.0275 -0.1070
  483SOL    HW1 1448   1.961   2.110   0.469  0.1761 -0.0121  0.0877
  483SOL    HW2 1449   2.070   2.000   0.417  0.0001 -0.2181  0.1554
  484SOL     OW 1450   0.173   0.025   0.366  0.0738 -0.4910  0.0327
  484SOL    HW1 1451   0.227   0.087   0.421  2.3786 -1.5807 -0.8649
  484SOL    HW2 1452   0.195   0.038   0.269 -1.5582 -0.7404 -0.4046
  485SOL     OW 1453   0.183   2.222   0.021 -0.1571  0.0155 -0.0121
  485SOL    HW1 1454   0.158   2.158   0.094  0.6259 -1.4467 -0.9547
  485SOL    HW2 1455   0.104   2.279  -0.002 -1.1072 -1.0950  0.3953
  486SOL     OW 1456   0.250   1.694   2.253 -0.1069  0.0711  0.4045
  486SOL    HW1 1457   0.228   1.602   2.286  1.1052 -0.1924  0.5591
  486SOL    HW2 1458   0.303   1.687   2.168  0.5965  0.5843  0.7854
  487SOL     OW 1459   1.101   0.513   0.130  0.1571 -0.0614 -0.6926
  487SOL    HW1 1460   1.072   0.421   0.106  0.2166 -0.1313 -0.4972
  487SOL    HW2 1461   1.187   0.535   0.084  0.5665 -0.4043 -0.1012
  488SOL     OW 1462   1.632   1.547   2.291  0.1034 -0.6524 -0.1587
  488SOL    HW1 1463   1.653   1.634   2.338  1.5866 -1.9627  1.8018
  488SOL    HW2 1464   1.611   1.477   2.359  0.9845 -2.3396 -1.5459
  489SOL     OW 1465   2.080   0.024   1.905  0.0726  0.0601  0.2754
  489SOL    HW1 1466   2.068   0.016   1.806 -0.4283  1.3707  0.2064
  489SOL    HW2 1467   2.008   0.081   1.942  1.2447  1.0211  1.1392
  490SOL     OW 1468   1.293   0.170   2.180 -0.2439 -0.6314 -0.3048
  490SOL    HW1 1469   1.387   0.188   2.153  0.8200  0.2309  3.4521
  490SOL    HW2 1470   1.243   0.257   2.186 -0.2103 -0.6895  1.0988
  491SOL     OW 1471   1.446   1.587   0.691 -0.0672  0.5123 -0.0485
  491SOL    HW1 1472   1.460   1.681   0.660 -0.4983  0.8639  0.8161
  491SOL    HW2 1473   1.521   1.560   0.751 -0.0349  0.3579 -0.1575
  492SOL     OW 1474   0.253   1.513   1.631  0.1873 -0.0653 -0.3045
  492SOL    HW1 1475   0.204   1.592   1.595  1.6522  1.9164  1.7423
  492SOL    HW2 1476   0.200   1.470   1.703  0.2904  0.4235  0.0692
  493SOL     OW 1477   0.353   1.259   0.483  0.4278  0.5652  0.7428
  493SOL    HW1 1478   0.286   1.211   0.426  2.8931 -3.0705  0.5737
  493SOL    HW2 1479   0.330   1.246   0.580 -0.2508  1.1800  0.6683
  494SOL     OW 1480   1.592   1.943   0.881 -0.3852  0.1032 -0.1714
  494SOL    HW1 1481   1.686   1.976   0.888 -0.3045 -0.2774  0.6655
  494SOL    HW2 1482   1.528   2.019   0.893 -0.1989  0.0136  1.6193
  495SOL     OW 1483   2.362   0.560   1.526 -0.0037  0.9552  0.0198
  495SOL    HW1 1484   2.339   0.657   1.536  1.2925  1.3495 -0.5042
  495SOL    HW2 1485   2.452   0.552   1.481 -0.0722 -0.4893  0.0947
  496SOL     OW 1486   1.146   2.445   2.060  0.0662  0.0267  0.3254
  496SOL    HW1 1487   1.200   2.524   2.090 -1.3937  0.6899  1.3242
  496SOL    HW2 1488   1.086   2.472   1.985  0.0432 -0.3115  0.2207
  497SOL     OW 1489   0.388   2.183   1.512  0.4840 -0.4095 -0.5422
  497SOL    HW1 1490   0.380   2.254   1.582 -0.0353  0.4222 -1.4325
  497SOL    HW2 1491   0.320   2.112   1.529  0.4482 -0.2772 -0.1263
  498SOL     OW 1492   0.167   0.261   0.072  0.2038  0.5577 -0.1867
  498SOL    HW1 1493   0.256   0.281   0.112  0.2488 -0.5708  0.3321
  498SOL    HW2 1494   0.176   0.184   0.009 -0.2762  0.8966 -0.6770
  499SOL     OW 1495   2.278   0.743   0.515 -0.0684 -0.3757 -0.7786
  499SOL    HW1 1496   2.238   0.670   0.459 -0.8117  0.9936 -2.0902
  499SOL    HW2 1497   2.250   0.730   0.610 -2.1319 -0.5169 -1.3540
  500SOL     OW 1498   1.531   0.056   0.010  0.0285 -0.4732  0.0759
  500SOL    HW1 1499   1.516   0.015  -0.079 -0.5328  0.3401 -0.2122
  500SOL    HW2 1500   1.481   0.005   0.080  0.0939 -0.8317 -0.1418
  501SOL     OW 1501   2.278   1.042   0.903  0.3840  0.5205  0.4686
  501SOL    HW1 1502   2.212   0.992   0.959 -0.3445  0.5485 -0.3554
  501SOL    HW2 1503   2.281   1.002   0.811  2.1575 -0.0487  0.7227
  502SOL     OW 1504   0.959   2.149   0.304 -0.4112  0.4819  0.1989
  502SOL    HW1 1505   0.920   2.218   0.365 -0.2965  0.6013  0.1376
  502SOL    HW2 1506   0.905   2.065   0.309 -2.1229  1.3868 -1.6505
  503SOL     OW 1507   2.176   1.782   0.274  0.0790 -0.0675  0.1780
  503SOL    HW1 1508   2.187   1.777   0.175  1.4862  0.1656  0.3013
  503SOL    HW2 1509   2.142   1.695   0.309 -0.1590 -0.2399 -0.4815
  504SOL     OW 1510   0.673   0.262   1.607 -0.6593 -0.5667 -0.2504
  504SOL    HW1 1511   0.629   0.263   1.696  2.7631 -0.3712  1.6350
  504SOL    HW2 1512   0.681   0.356   1.573  1.0145 -0.1963  1.0014
  505SOL     OW 1513   1.981   0.432   1.678  0.0917 -0.2147 -0.2636
  505SOL    HW1 1514   2.058   0.385   1.722 -0.3263 -0.7818 -0.1271
  505SOL    HW2 1515   1.928   0.481   1.746 -0.0668 -0.3944 -0.2575
  506SOL     OW 1516   0.288   1.160   1.897 -0.2739  0.1391  0.1993
  506SOL    HW1 1517   0.300   1.241   1.955 -0.9682  0.7571 -0.4900
  506SOL    HW2 1518   0.294   1.077   1.953  0.1786  0.6708  0.9606
  507SOL     OW 1519   1.454   1.568   0.231  0.0895 -0.0905  0.4105
  507SOL    HW1 1520   1.450   1.468   0.232  0.2929 -0.1022  0.1451
  507SOL    HW2 1521   1.397   1.605   0.305  1.4719 -0.4548  1.6951
  508SOL     OW 1522   2.161   1.192   0.295  0.0981  0.7213  0.3162
  508SOL    HW1 1523   2.171   1.092   0.292 -0.5542  0.6612  0.1695
  508SOL    HW2 1524   2.065   1.216   0.305  0.1935  1.3485 -0.2145
  509SOL     OW 1525   2.027   1.058   1.043  0.7781  0.2880  0.1681
  509SOL    HW1 1526   2.091   1.134   1.035  1.5725 -0.4079 -0.1969
  509SOL    HW2 1527   1.940   1.082   0.998  0.1855  1.8389  1.9918
  510SOL     OW 1528   0.999   0.201   0.671  0.6576  0.4429  0.3485
  510SOL    HW1 1529   0.908   0.234   0.645  0.2257 -0.8736  0.1028
  510SOL    HW2 1530   1.041   0.266   0.734 -0.4096  1.1180  0.3980
   2.47263   2.47263   2.47263
