SPC/E water — SIM-01 equilibrium validation
 1530
    1SOL     OW    1   0.315   0.807   2.186 -0.1259  0.0459  0.3763
    1SOL    HW1    2   0.369   0.834   2.266 -0.8691  0.0581  0.8759
    1SOL    HW2    3   0.222   0.786   2.214 -0.8642  1.6575 -0.7227
    2SOL     OW    4   0.949   0.377   0.666 -0.3016 -0.2238 -0.6576
    2SOL    HW1    5   1.013   0.435   0.616 -1.1111  1.3636  0.0477
    2SOL    HW2    6   0.973   0.377   0.764 -0.9672 -0.1665 -0.4896
    3SOL     OW    7   0.647   1.262   2.433 -0.4764 -0.1934 -0.5065
    3SOL    HW1    8   0.692   1.238   2.347 -0.8968 -0.4330 -0.6681
    3SOL    HW2    9   0.566   1.317   2.413 -0.5694 -0.2417 -0.2643
    4SOL     OW   10   0.352   0.137   0.030  0.2998  1.1775  0.3312
    4SOL    HW1   11   0.296   0.136  -0.053  1.2396  0.4225 -0.3093
    4SOL    HW2   12   0.311   0.077   0.098 -0.2156  1.4182  0.2361
    5SOL     OW   13   0.274   0.358   0.370  0.4287  0.1695 -0.6068
    5SOL    HW1   14   0.362   0.387   0.332  0.3163 -0.1703 -1.1284
    5SOL    HW2   15   0.208   0.432   0.363  0.9824  0.8502  0.8574
    6SOL     OW   16   0.754   0.460   2.151 -0.1330  0.4806  0.3468
    6SOL    HW1   17   0.655   0.460   2.167 -0.6825  1.3926 -2.3913
    6SOL    HW2   18   0.791   0.550   2.172  0.0736  0.2415  1.0363
    7SOL     OW   19   0.294   1.719   0.652  0.1146  0.3230  0.2806
    7SOL    HW1   20   0.236   1.638   0.640  1.9564 -1.1334  0.7543
    7SOL    HW2   21   0.275   1.761   0.741 -1.7460  1.2121 -0.4913
    8SOL     OW   22   2.117   0.579   0.467 -0.1623 -0.7069  0.6808
    8SOL    HW1   23   2.074   0.653   0.414  0.2709 -0.8572  0.1151
    8SOL    HW2   24   2.059   0.498   0.462  0.2717 -0.9770 -0.2645
    9SOL     OW   25   0.769   0.001   2.371 -0.3168 -0.1537 -0.6870
    9SOL    HW1   26   0.783   0.005   2.272  1.5252  1.7067 -0.4263
    9SOL    HW2   27   0.698   0.067   2.397 -1.3308 -1.1688 -0.8096
   10SOL     OW   28   2.472   0.582   2.459  0.5462 -0.4908 -0.3633
   10SOL    HW1   29   2.529   0.506   2.489 -0.1209 -0.3230  1.3980
   10SOL    HW2   30   2.396   0.596   2.523 -0.5414  0.3468 -1.7565
   11SOL     OW   31   1.878   0.226   0.024 -0.1338  0.1869  0.1857
   11SOL    HW1   32   1.932   0.164  -0.033  0.5119  1.3946 -0.5608
   11SOL    HW2   33   1.791   0.245  -0.020  1.2900  2.9839 -1.7143
   12SOL     OW   34   1.825   2.212   0.333 -0.3811  0.5422  0.2361
   12SOL    HW1   35   1.729   2.181   0.335 -0.3209  0.3369  0.0454
   12SOL    HW2   36   1.884   2.140   0.369 -0.2499  0.4785 -0.1004
   13SOL     OW   37   1.775   0.010   1.137  0.1122  0.6407 -0.0514
   13SOL    HW1   38   1.854   0.025   1.196 -0.9839 -0.2835  1.7385
   13SOL    HW2   39   1.736   0.098   1.111  0.7269  1.0776  0.4716
   14SOL     OW   40   1.433   0.554   1.372 -0.1166 -0.5966 -0.1556
   14SOL    HW1   41   1.361   0.621   1.353  0.1231 -0.3577 -0.2339
   14SOL    HW2   42   1.392   0.470   1.407 -0.4445 -0.5076 -0.3182
   15SOL     OW   43   2.157   0.717   2.339 -0.0406 -0.1957 -0.2033
   15SOL    HW1   44   2.203   0.688   2.422 -0.8662 -0.9222  0.0092
   15SOL    HW2   45   2.206   0.796   2.300 -0.2576  0.8684  1.5509
   16SOL     OW   46   1.808   1.258   0.464  0.1930  0.3058  0.2114
   16SOL    HW1   47   1.760   1.337   0.426 -0.7078 -0.2483  0.1805
   16SOL    HW2   48   1.780   1.244   0.559 -0.2049 -0.4169 -0.0093
   17SOL     OW   49   1.178   2.348   2.458  0.3494 -0.1965  0.1814
   17SOL    HW1   50   1.142   2.302   2.377  0.1103  0.0227  0.1624
   17SOL    HW2   51   1.107   2.409   2.496  0.6806  0.1957  0.1757
   18SOL     OW   52   0.637   2.399   0.384 -0.2751 -0.5097  0.0847
   18SOL    HW1   53   0.736   2.381   0.382 -0.3436 -1.2051  1.4642
   18SOL    HW2   54   0.620   2.496   0.368  0.7252 -0.1894  0.8363
   19SOL     OW   55   1.837   1.860   2.080 -0.3191  0.6092  0.4676
   19SOL    HW1   56   1.833   1.763   2.058  1.3862 -0.0321  2.6214
   19SOL    HW2   57   1.771   1.881   2.152 -1.1739  1.2442 -0.4654
   20SOL     OW   58   1.569   0.984   1.549  0.4247 -0.0736  0.3236
   20SOL    HW1   59   1.544   0.907   1.607  1.5503 -1.3640 -0.8496
   20SOL    HW2   60   1.492   1.006   1.488  0.3895 -0.8116  0.0954
   21SOL     OW   61   1.741   1.416   1.672  0.3545 -0.4751 -0.7753
   21SOL    HW1   62   1.726   1.435   1.575 -1.3953  1.5389 -0.1772
   21SOL    HW2   63   1.669   1.355   1.706 -0.5935  0.9222 -0.1957
   22SOL     OW   64   2.106   1.787   2.382  0.0375  0.0936 -0.1675
   22SOL    HW1   65   2.194   1.759   2.418 -0.0291  1.2057  0.9004
   22SOL    HW2   66   2.118   1.823   2.289  0.3416 -1.8777 -0.9506
   23SOL     OW   67   1.326   0.590   2.289  0.1537 -0.7634 -0.9481
   23SOL    HW1   68   1.384   0.541   2.224  2.6645 -1.2338  1.4431
   23SOL    HW2   69   1.355   0.569   2.382 -3.9289 -0.9710  0.4909
   24SOL     OW   70   0.957   0.088   0.669  0.4436 -0.1588 -0.2964
   24SOL    HW1   71   0.938   0.185   0.656  1.6066  0.2065  0.5130
   24SOL    HW2   72   1.001   0.051   0.587  3.8840  1.0876  0.7914
   25SOL     OW   73   2.247   1.214   1.709 -0.5667  0.2670 -0.0652
   25SOL    HW1   74   2.167   1.270   1.726 -1.2010 -0.2109 -1.3653
   25SOL    HW2   75   2.254   1.143   1.780 -1.4461  0.1403 -0.1021
   26SOL     OW   76   0.481   2.357   0.967 -0.4353  0.0053 -0.1779
   26SOL    HW1   77   0.509   2.427   1.032  2.1148 -1.2723  0.2609
   26SOL    HW2   78   0.450   2.276   1.017 -0.7382 -0.1426 -0.6023
   27SOL     OW   79   1.955   1.834   1.416  0.4895 -0.0804 -0.3758
   27SOL    HW1   80   2.009   1.906   1.372 -0.0007 -1.0510 -2.7060
   27SOL    HW2   81   1.868   1.872   1.447  0.9416  0.6893 -0.0245
   28SOL     OW   82   2.045   1.008   1.007 -0.4288  0.2253 -0.5782
   28SOL    HW1   83   2.031   1.029   1.104  0.3174  0.7593 -0.5784
   28SOL    HW2   84   2.142   1.019   0.984 -0.4235 -0.8891 -1.1539
   29SOL     OW   85   0.826   0.510   1.223  0.4134  0.1363 -0.7298
   29SOL    HW1   86   0.756   0.450   1.186 -0.0430 -0.0942  0.4554
   29SOL    HW2   87   0.848   0.581   1.156 -1.4826  0.6539 -0.8816
   30SOL     OW   88   0.699   0.452   1.863  0.1838 -0.2991  0.0776
   30SOL    HW1   89   0.610   0.496   1.868  0.5608  0.4247  0.6859
   30SOL    HW2   90   0.738   0.444   1.955  1.1896  0.3244 -0.2758
   31SOL     OW   91   0.056   1.381   0.800 -0.4792  0.8551 -0.4317
   31SOL    HW1   92   0.108   1.404   0.718 -0.6819 -1.2987 -1.2161
   31SOL    HW2   93  -0.013   1.311   0.778 -0.7487  0.4565  1.5036
   32SOL     OW   94   0.157   0.535   1.802  0.2957  0.3774 -0.5534
   32SOL    HW1   95   0.134   0.479   1.881  2.8336 -0.9409 -0.6636
   32SOL    HW2   96   0.169   0.630   1.830 -2.1713  0.6073 -0.0300
   33SOL     OW   97   2.188   0.003   2.306 -0.0906 -0.1111 -0.8187
   33SOL    HW1   98   2.245   0.066   2.358  0.2171  0.3145 -1.6544
   33SOL    HW2   99   2.244  -0.043   2.236 -0.5907 -0.3326 -1.0839
   34SOL     OW  100   2.360   0.861   0.608  0.0843  0.8545 -0.4799
   34SOL    HW1  101   2.261   0.865   0.612  0.0210  0.4040 -1.2967
   34SOL    HW2  102   2.391   0.896   0.520  0.6871  1.4350 -0.0492
   35SOL     OW  103   1.103   2.294   1.239 -0.1557  0.5145  0.3556
   35SOL    HW1  104   1.048   2.286   1.322 -0.3312  1.4999  0.3460
   35SOL    HW2  105   1.049   2.337   1.167  0.4926  1.1192  0.2188
   36SOL     OW  106   1.295   2.358   0.932  0.1833 -0.2196  0.3010
   36SOL    HW1  107   1.268   2.264   0.954  0.2148 -0.1477  0.6687
   36SOL    HW2  108   1.370   2.385   0.992 -0.2790  0.2707  0.6668
   37SOL     OW  109   0.875   0.603   0.401 -0.1291 -0.2350 -0.3790
   37SOL    HW1  110   0.860   0.505   0.391  1.8859 -0.6426  0.1078
   37SOL    HW2  111   0.827   0.637   0.482 -0.1159 -1.0075 -0.0450
   38SOL     OW  112   1.300   1.219   0.792  0.1166  0.2793  0.1019
   38SOL    HW1  113   1.361   1.267   0.728  1.3156  1.6579  2.1414
   38SOL    HW2  114   1.210   1.209   0.751  1.2011 -0.2289 -2.3447
   39SOL     OW  115   2.441   1.961   0.236  0.0731 -0.0609  1.0042
   39SOL    HW1  116   2.411   2.007   0.152  0.4476  0.1340  0.9784
   39SOL    HW2  117   2.512   1.895   0.215  2.7346  2.4377  1.5816
   40SOL     OW  118   1.842   0.868   2.057  0.3713 -0.0543 -0.1681
   40SOL    HW1  119   1.826   0.776   2.094 -0.8788  0.9751  2.0262
   40SOL    HW2  120   1.766   0.892   1.996 -1.5794  1.0145  2.4907
   41SOL     OW  121   1.051   1.793   0.211  0.2782  0.7079 -0.0704
   41SOL    HW1  122   1.001   1.848   0.278 -0.7101 -0.9845  0.6475
   41SOL    HW2  123   0.986   1.738   0.159  1.2925 -0.3973 -0.1976
   42SOL     OW  124   1.612   0.048   1.504 -0.5362 -0.2679  0.0372
   42SOL    HW1  125   1.700   0.017   1.467 -1.2666 -1.0087 -1.1718
   42SOL    HW2  126   1.559   0.091   1.431 -0.6446  1.4288  1.0788
   43SOL     OW  127   1.792   1.791   0.249 -0.9833  0.1818  0.4067
   43SOL    HW1  128   1.848   1.848   0.188  1.6616 -1.2152  1.3889
   43SOL    HW2  129   1.726   1.740   0.194 -1.1111  1.6328 -0.8568
   44SOL     OW  130   2.292   0.224   1.480 -0.2402 -0.7079 -0.3817
   44SOL    HW1  131   2.302   0.273   1.394 -3.7782 -2.5083 -2.0637
   44SOL    HW2  132   2.381   0.191   1.511  1.2536  0.7224 -2.8757
   45SOL     OW  133   0.577   2.411   0.720 -0.1949 -0.0993  0.3059
   45SOL    HW1  134   0.552   2.388   0.814 -0.3040 -0.4723  0.1882
   45SOL    HW2  135   0.665   2.368   0.698 -1.1396 -1.7686 -0.4275
   46SOL     OW  136   1.197   1.185   0.232 -0.2946  0.6046  0.4660
   46SOL    HW1  137   1.167   1.268   0.184 -0.4014 -0.1792 -0.8686
   46SOL    HW2  138   1.275   1.207   0.290 -2.0932  2.2622  2.4362
   47SOL     OW  139   2.285   0.948   2.214 -0.1605 -0.3057 -0.0812
   47SOL    HW1  140   2.248   1.012   2.282 -0.3787  0.0421 -0.5248
   47SOL    HW2  141   2.233   0.955   2.129  0.2211 -0.6124 -0.3457
   48SOL     OW  142   0.759   0.904   2.410  0.6603  0.1039 -0.3135
   48SOL    HW1  143   0.816   0.827   2.384  1.7056  0.7811 -0.1071
   48SOL    HW2  144   0.801   0.989   2.378 -0.2969  0.6184 -0.2544
   49SOL     OW  145   1.423   0.246   0.963 -0.6030  0.1353 -0.1875
   49SOL    HW1  146   1.423   0.343   0.943  1.2874 -0.1827 -2.0202
   49SOL    HW2  147   1.338   0.205   0.929 -0.8326  0.9364 -0.5961
   50SOL     OW  148   0.443   2.049   0.907 -0.1751 -0.1118  0.6184
   50SOL    HW1  149   0.418   2.117   0.838  0.0916 -1.2930 -0.6931
   50SOL    HW2  150   0.378   1.973   0.904  0.0978 -0.3898  1.3790
   51SOL     OW  151   1.223   0.290   1.278 -0.2085 -0.1465 -0.7867
   51SOL    HW1  152   1.150   0.302   1.346  1.1699 -0.0742  0.7427
   51SOL    HW2  153   1.212   0.358   1.205 -1.0218  0.5958  0.0021
   52SOL     OW  154   1.878   0.785   0.426 -0.3063  0.3610  0.1165
   52SOL    HW1  155   1.837   0.875   0.416 -1.7419 -0.3607 -0.9595
   52SOL    HW2  156   1.822   0.717   0.379  0.9301 -1.0546  0.5722
   53SOL     OW  157   2.064   1.573   2.216  0.1272 -0.4002  0.1399
   53SOL    HW1  158   2.043   1.664   2.251  1.8920  0.5972 -1.2227
   53SOL    HW2  159   1.994   1.545   2.150  1.0206  1.2433 -1.5759
   54SOL     OW  160   1.005   1.009   1.529  0.0661 -0.1433 -0.7380
   54SOL    HW1  161   1.012   1.109   1.526  1.2921 -0.2329 -1.5033
   54SOL    HW2  162   0.982   0.981   1.622 -0.3836  0.8457 -0.5266
   55SOL     OW  163   1.258   1.480   2.127  0.1043  0.1506  0.1228
   55SOL    HW1  164   1.334   1.507   2.067 -0.2015 -0.7642 -0.6995
   55SOL    HW2  165   1.204   1.561   2.151  1.6787  0.9341  1.2537
   56SOL     OW  166   2.059   1.202   0.772 -0.1348  0.1581 -0.2365
   56SOL    HW1  167   2.030   1.294   0.800  0.9647  0.4761 -0.0863
   56SOL    HW2  168   2.045   1.138   0.847  0.6570  0.5515  0.2626
   57SOL     OW  169   2.425   0.026   1.226  0.0131 -0.2542  0.4575
   57SOL    HW1  170   2.521   0.018   1.199  0.2350  1.5526  0.6266
   57SOL    HW2  171   2.410  -0.026   1.310  0.4902 -1.6699 -0.2825
   58SOL     OW  172   0.219   1.529   0.193 -0.0481  0.1042 -0.1998
   58SOL    HW1  173   0.261   1.501   0.279 -0.4557 -0.6452 -0.2332
   58SOL    HW2  174   0.203   1.628   0.194  0.5787  0.2077  0.3017
   59SOL     OW  175   1.139   0.084   0.878  0.2430 -1.1480  0.5592
   59SOL    HW1  176   1.184  -0.005   0.888  1.0088 -1.0259 -1.4834
   59SOL    HW2  177   1.086   0.085   0.794 -0.3029  0.1243  0.9017
   60SOL     OW  178   2.450   1.169   1.413 -0.6487  0.4830  0.3688
   60SOL    HW1  179   2.456   1.257   1.367 -1.1310  0.1959 -0.2562
   60SOL    HW2  180   2.361   1.127   1.394  0.2853 -1.0332 -1.0341
   61SOL     OW  181   0.344   1.805   1.972  0.6746  0.3120  0.0034
   61SOL    HW1  182   0.257   1.829   1.928  0.4586  1.2516  0.9128
   61SOL    HW2  183   0.405   1.763   1.904 -0.3512 -0.0432 -0.7282
   62SOL     OW  184   1.535   2.035   1.837  0.2413 -0.3537 -0.1584
   62SOL    HW1  185   1.458   2.097   1.823  0.8853 -0.1043 -3.2636
   62SOL    HW2  186   1.618   2.075   1.798  1.8282 -0.9940  2.3420
   63SOL     OW  187   1.715   0.999   0.386  0.2574 -0.0233  0.2113
   63SOL    HW1  188   1.629   1.002   0.437  0.1891 -1.9267  0.2807
   63SOL    HW2  189   1.763   1.086   0.397 -2.2993  1.6866 -1.0185
   64SOL     OW  190   0.215   0.178   1.914  0.3152 -0.1829  0.0895
   64SOL    HW1  191   0.299   0.178   1.860 -0.6738 -1.4241 -1.5474
   64SOL    HW2  192   0.197   0.085   1.948 -0.0343  0.2179  1.0397
   65SOL     OW  193   1.323   1.664   0.984 -0.1345  0.2503  0.2054
   65SOL    HW1  194   1.375   1.678   0.900  2.4985  0.2943  1.7639
   65SOL    HW2  195   1.246   1.729   0.986 -0.1693  0.3704 -2.0360
   66SOL     OW  196   0.063   1.121   1.675  0.5277  0.1797  0.8180
   66SOL    HW1  197  -0.010   1.093   1.737  0.7919  0.1205  1.1044
   66SOL    HW2  198   0.026   1.131   1.583  0.1507  0.1821  0.9655
   67SOL     OW  199   1.382   1.374   0.584  0.1595 -0.4335  0.3441
   67SOL    HW1  200   1.392   1.312   0.506 -0.8318 -1.3039  0.8702
   67SOL    HW2  201   1.351   1.464   0.552 -0.9698 -0.9996 -0.2335
   68SOL     OW  202   1.133   1.447   0.115 -0.6378  0.0845  0.3450
   68SOL    HW1  203   1.044   1.491   0.102 -0.3077  0.3298 -1.3249
   68SOL    HW2  204   1.192   1.507   0.168 -0.7184  0.9874 -0.5511
   69SOL     OW  205   1.335   1.414   2.392  0.6161  0.1093 -0.3546
   69SOL    HW1  206   1.252   1.393   2.445  1.6943 -2.6318  0.4592
   69SOL    HW2  207   1.309   1.442   2.300 -1.2653 -2.1766 -0.6374
   70SOL     OW  208   1.909   1.883   0.939  0.0019  0.0190 -0.0196
   70SOL    HW1  209   1.910   1.829   1.023 -3.6571  2.3305  1.7775
   70SOL    HW2  210   1.987   1.945   0.939  0.8007 -0.9515  0.9888
   71SOL     OW  211   0.810   1.975   2.441  0.1980  0.2211  0.2336
   71SOL    HW1  212   0.889   1.991   2.501 -0.5231 -0.4988  1.4272
   71SOL    HW2  213   0.793   2.056   2.385  1.2475  0.7007  0.5912
   72SOL     OW  214   0.959   1.992   1.523  0.2492  0.4638  0.1758
   72SOL    HW1  215   0.883   1.938   1.560 -0.2126  1.2104  0.3536
   72SOL    HW2  216   1.043   1.969   1.572  0.2184 -0.6247 -0.2582
   73SOL     OW  217   2.296   0.716   1.920 -0.3306 -0.5065 -0.4294
   73SOL    HW1  218   2.382   0.765   1.931 -0.5799 -0.4813  1.8218
   73SOL    HW2  219   2.316   0.621   1.893  0.4246 -0.5411  0.2031
   74SOL     OW  220   0.777   2.046   0.261 -0.0442 -0.7716 -0.2682
   74SOL    HW1  221   0.799   2.020   0.166  0.1920 -1.5236 -0.0176
   74SOL    HW2  222   0.814   2.136   0.280  0.6360 -0.9637 -0.6436
   75SOL     OW  223   2.335   2.109   2.024 -0.1544  0.3809  0.0114
   75SOL    HW1  224   2.244   2.150   2.024 -0.3141  0.0946 -1.6977
   75SOL    HW2  225   2.350   2.061   1.938  1.5922  0.3470  0.2983
   76SOL     OW  226   0.027   1.918   0.990  0.3025  0.0988  0.1407
   76SOL    HW1  227   0.005   2.016   0.982  2.3054  0.4635 -2.2070
   76SOL    HW2  228  -0.050   1.864   0.955  0.2763  1.0116 -1.3204
   77SOL     OW  229   0.760   0.727   0.620  0.0702 -0.1943  0.8989
   77SOL    HW1  230   0.746   0.675   0.705  0.9303 -0.2741  0.9974
   77SOL    HW2  231   0.730   0.821   0.634 -2.7510 -0.9037  0.3294
   78SOL     OW  232   0.273   1.371   1.684 -0.4162 -0.3884  0.0542
   78SOL    HW1  233   0.182   1.334   1.663  0.1507 -1.6487 -0.2905
   78SOL    HW2  234   0.294   1.445   1.620 -1.3460  0.2075  0.4009
   79SOL     OW  235   1.376   0.471   0.768  0.2060 -0.2665 -0.4129
   79SOL    HW1  236   1.295   0.515   0.728  0.5557  1.1068  0.3055
   79SOL    HW2  237   1.437   0.441   0.695 -0.9037 -1.2464 -0.9619
   80SOL     OW  238   1.641   1.340   0.973 -0.5773 -0.3167  0.0755
   80SOL    HW1  239   1.580   1.330   1.051 -1.0353 -0.0488 -0.2432
   80SOL    HW2  240   1.629   1.430   0.932 -2.1356 -1.2607 -1.7690
   81SOL     OW  241   0.679   2.314   1.339 -0.4507 -0.2706 -0.2884
   81SOL    HW1  242   0.767   2.323   1.385 -1.0313  0.3270  0.7371
   81SOL    HW2  243   0.661   2.218   1.318 -0.2054 -0.5530  0.7788
   82SOL     OW  244   0.340   1.593   1.529 -0.1605  0.1195  0.3619
   82SOL    HW1  245   0.254   1.643   1.526 -0.2615 -0.0879 -1.4327
   82SOL    HW2  246   0.398   1.621   1.452  0.8457 -0.6577  0.8041
   83SOL     OW  247   2.437   1.523   1.011  0.3611  0.1272 -0.6126
   83SOL    HW1  248   2.471   1.470   0.934 -1.2002 -0.8476 -0.6586
   83SOL    HW2  249   2.365   1.585   0.981 -1.2260 -1.2277  0.2305
   84SOL     OW  250   0.191   1.002   0.889  0.1056 -0.5792 -0.1221
   84SOL    HW1  251   0.289   1.021   0.879 -0.0702  0.6816  0.3924
   84SOL    HW2  252   0.163   1.019   0.983 -0.5279 -1.4290 -0.1389
   85SOL     OW  253   0.940   1.909   2.159 -0.7526 -0.5225 -0.1535
   85SOL    HW1  254   0.968   1.814   2.173 -1.1669 -0.7876 -1.0675
   85SOL    HW2  255   0.877   1.937   2.232 -0.3366 -0.8271  0.3222
   86SOL     OW  256   2.445   1.357   1.970 -0.0450  0.7074  0.3071
   86SOL    HW1  257   2.381   1.429   1.994  0.0058  0.9702 -0.3375
   86SOL    HW2  258   2.487   1.377   1.882 -0.1447 -0.1906  0.0503
   87SOL     OW  259   1.535   2.165   0.259  0.1847  0.8141  0.0619
   87SOL    HW1  260   1.513   2.070   0.235  1.8345  0.4300 -0.0555
   87SOL    HW2  261   1.475   2.227   0.208  0.2147 -0.1268 -1.1578
   88SOL     OW  262   1.248   1.378   0.993 -0.0305  0.1660 -0.2771
   88SOL    HW1  263   1.283   1.358   0.902  0.1534  0.6275 -0.3099
   88SOL    HW2  264   1.249   1.477   1.008  1.6901  0.0231  0.9019
   89SOL     OW  265   0.016   2.439   2.376 -0.4643  0.4574 -0.2656
   89SOL    HW1  266   0.035   2.361   2.437  2.0982  0.5588 -0.8135
   89SOL    HW2  267  -0.021   2.405   2.290  2.0391 -0.4158 -1.0854
   90SOL     OW  268   1.876   1.629   0.002 -0.4651  0.4686 -0.3518
   90SOL    HW1  269   1.846   1.723  -0.014  0.3506  0.7721 -0.1689
   90SOL    HW2  270   1.976   1.626   0.004 -0.4809 -0.1815  0.8850
   91SOL     OW  271   0.728   1.817   1.154  0.1694 -0.1617 -0.4708
   91SOL    HW1  272   0.819   1.827   1.194  1.0934 -1.5703 -2.0542
   91SOL    HW2  273   0.690   1.728   1.178 -1.8979  1.2797  2.1139
   92SOL     OW  274   1.026   0.719   1.538  0.2114  0.0470 -0.0438
   92SOL    HW1  275   0.991   0.781   1.468 -1.4772 -0.2284  0.5052
   92SOL    HW2  276   0.969   0.636   1.540  0.7569 -0.3200  1.0836
   93SOL     OW  277   0.488   0.767   0.146  0.3660 -0.0335 -0.0412
   93SOL    HW1  278   0.396   0.731   0.128  0.4581 -0.7996  0.9335
   93SOL    HW2  279   0.515   0.743   0.239  1.1830  1.0068  0.0031
   94SOL     OW  280   0.526   2.101   0.560 -0.3021  0.0182 -0.2873
   94SOL    HW1  281   0.548   2.197   0.546  1.5092  0.0462  2.0493
   94SOL    HW2  282   0.437   2.094   0.606  0.1846  0.7225  0.8203
   95SOL     OW  283   2.046   2.452   0.388 -0.1575 -0.3745 -0.2678
   95SOL    HW1  284   2.001   2.375   0.343  0.8890 -0.1238 -1.8479
   95SOL    HW2  285   2.049   2.437   0.487 -0.9046 -1.8403 -0.4480
   96SOL     OW  286   2.062   2.389   1.924 -0.5839  0.4227 -0.3337
   96SOL    HW1  287   1.963   2.405   1.924 -0.5527  0.6261  0.0943
   96SOL    HW2  288   2.109   2.471   1.957 -0.2703  0.3291 -0.5456
   97SOL     OW  289   2.136   2.198   1.774 -0.1455  0.3014 -0.0907
   97SOL    HW1  290   2.070   2.122   1.778  0.8462 -0.5718  0.1770
   97SOL    HW2  291   2.102   2.274   1.830 -0.7488 -0.2851  0.3651
   98SOL     OW  292   0.210   0.102   0.394  0.4221  0.2330 -0.1499
   98SOL    HW1  293   0.237   0.196   0.371  0.2205  0.6485  1.2605
   98SOL    HW2  294   0.204   0.048   0.310 -0.4362  1.7307 -1.0961
   99SOL     OW  295   0.216   1.264   1.241  0.3718  0.0672 -0.1301
   99SOL    HW1  296   0.260   1.309   1.163 -0.3284 -0.0018 -0.5844
   99SOL    HW2  297   0.128   1.309   1.259  0.9325  0.6521  1.2008
  100SOL     OW  298   1.742   0.861   0.086 -0.0637 -0.2465 -0.0047
  100SOL    HW1  299   1.730   0.770   0.125 -0.8995  0.0982  0.5660
  100SOL    HW2  300   1.657   0.912   0.093  0.6117  0.8590  0.4182
  101SOL     OW  301   1.046   1.044   0.439 -0.1953  0.5635  0.3430
  101SOL    HW1  302   0.988   0.978   0.392  0.6132  0.0850 -0.0040
  101SOL    HW2  303   1.088   1.105   0.372  0.7315  0.0664  0.4473
  102SOL     OW  304   1.662   1.801   0.856  0.3166 -0.6363  0.0594
  102SOL    HW1  305   1.735   1.866   0.874 -1.5666  0.8434  2.9693
  102SOL    HW2  306   1.599   1.839   0.788  1.2432 -1.1825 -1.1533
  103SOL     OW  307   0.863   0.565   0.907  0.4918 -0.1299  0.8591
  103SOL    HW1  308   0.920   0.483   0.913  0.8107 -0.1677 -1.5199
  103SOL    HW2  309   0.767   0.539   0.898  0.6465 -0.3052 -0.4763
  104SOL     OW  310   0.379   1.934   1.305  0.5448 -0.2881  0.0847
  104SOL    HW1  311   0.347   2.001   1.238 -0.1001 -2.2427 -1.6853
  104SOL    HW2  312   0.302   1.906   1.363  0.0675 -1.6307 -1.1493
  105SOL     OW  313   0.117   0.768   1.947  0.7311  0.6065 -0.2281
  105SOL    HW1  314   0.097   0.742   2.042  2.5546 -0.9865 -0.1963
  105SOL    HW2  315   0.175   0.849   1.946  0.2735  0.9378 -0.0049
  106SOL     OW  316   0.040   0.151   0.139 -0.0247 -0.4342  0.2871
  106SOL    HW1  317  -0.041   0.143   0.196  0.8701 -0.4013  1.6064
  106SOL    HW2  318   0.096   0.068   0.148  0.9104  0.2256  0.7302
  107SOL     OW  319   1.616   0.475   1.820  0.2864 -0.3025  0.1061
  107SOL    HW1  320   1.694   0.481   1.758  0.0241 -1.5891 -0.3774
  107SOL    HW2  321   1.621   0.390   1.872 -0.8990 -0.5200 -0.0998
  108SOL     OW  322   2.199   0.549   2.145 -0.3436 -0.4177 -0.1308
  108SOL    HW1  323   2.209   0.594   2.056  1.7176 -0.4812  0.0024
  108SOL    HW2  324   2.178   0.618   2.215 -3.5424 -0.5583 -0.8277
  109SOL     OW  325   1.130   2.006   0.907  0.3997 -0.0892 -0.0400
  109SOL    HW1  326   1.211   1.994   0.964 -0.2451 -1.3722  0.6376
  109SOL    HW2  327   1.067   2.071   0.950  1.1441  1.0927 -0.6824
  110SOL     OW  328   0.837   2.315   0.707  0.4309 -0.4100 -0.1405
  110SOL    HW1  329   0.886   2.403   0.709 -0.8132  0.2871  0.4860
  110SOL    HW2  330   0.894   2.245   0.751  0.9321  0.3545  0.4697
  111SOL     OW  331   2.327   1.733   0.054 -0.4521 -0.0492 -0.1962
  111SOL    HW1  332   2.337   1.656   0.117 -0.3818  0.4784  0.4454
  111SOL    HW2  333   2.342   1.819   0.103  1.1453  0.3258 -1.2302
  112SOL     OW  334   0.290   1.027   0.102  0.4129  0.0361  0.6003
  112SOL    HW1  335   0.211   0.967   0.090 -0.6918  1.6977 -1.0385
  112SOL    HW2  336   0.363   1.000   0.039 -0.4938  0.9608 -0.9315
  113SOL     OW  337   0.714   2.021   0.946 -0.1108  0.0589  0.1374
  113SOL    HW1  338   0.623   2.060   0.937 -0.2738 -0.5314 -0.9063
  113SOL    HW2  339   0.721   1.972   1.033 -0.6452  0.4620  0.4106
  114SOL     OW  340   2.144   1.587   1.338 -1.1204 -0.2152  0.8707
  114SOL    HW1  341   2.088   1.570   1.257  0.6065 -0.9185 -0.2397
  114SOL    HW2  342   2.140   1.508   1.399 -2.2034  0.2015  1.3587
  115SOL     OW  343   1.694   0.218   1.010  0.0050 -0.6303 -0.6253
  115SOL    HW1  344   1.730   0.239   0.919  0.8218  0.6608 -0.0357
  115SOL    HW2  345   1.598   0.193   1.002 -0.4105  1.0958 -1.7086
  116SOL     OW  346   0.650   1.004   0.215  0.0018 -0.2806  0.1374
  116SOL    HW1  347   0.564   0.994   0.266  0.9665 -1.7530  1.6064
  116SOL    HW2  348   0.632   0.994   0.117 -1.4730 -0.8244  0.4290
  117SOL     OW  349   2.182   1.010   0.292  0.0755 -0.2528 -0.2888
  117SOL    HW1  350   2.150   1.063   0.371 -0.6727  0.2230 -0.8934
  117SOL    HW2  351   2.217   1.072   0.222 -1.3213 -0.4755 -1.2342
  118SOL     OW  352   2.267   1.804   0.926 -0.5313  0.5566  0.3488
  118SOL    HW1  353   2.207   1.730   0.955  0.0701 -0.0895 -0.0196
  118SOL    HW2  354   2.224   1.892   0.946 -1.3161  0.1101  0.6604
  119SOL     OW  355   0.245   0.348   1.627 -0.1622 -0.5690  0.0981
  119SOL    HW1  356   0.330   0.325   1.673 -0.0439  0.1289  0.2352
  119SOL    HW2  357   0.195   0.417   1.680 -0.8204 -0.9782  0.0279
  120SOL     OW  358   1.607   1.637   0.106 -0.0843 -0.0301 -0.2392
  120SOL    HW1  359   1.602   1.593   0.016  0.2546 -0.6351  0.0369
  120SOL    HW2  360   1.528   1.697   0.117  0.7916  1.4768 -1.6831
  121SOL     OW  361   0.831   0.249   1.737  0.1905 -0.1857  0.0297
  121SOL    HW1  362   0.794   0.211   1.652  0.5165 -0.8506  0.1838
  121SOL    HW2  363   0.786   0.337   1.755 -0.6141 -0.5125 -0.2996
  122SOL     OW  364   1.752   0.474   1.142  0.0575 -0.0917 -0.3710
  122SOL    HW1  365   1.697   0.409   1.090 -0.0347  0.7861 -1.4011
  122SOL    HW2  366   1.723   0.567   1.121 -0.0745  0.2963  1.3753
  123SOL     OW  367   0.888   0.694   2.119 -0.1778  0.0725  0.4481
  123SOL    HW1  368   0.943   0.687   2.203  0.5090 -1.8248 -0.1093
  123SOL    HW2  369   0.947   0.676   2.040 -1.5422 -2.0636 -0.1733
  124SOL     OW  370   1.803   2.189   2.176 -0.7127 -0.0216  0.1255
  124SOL    HW1  371   1.724   2.183   2.237 -2.3416 -0.5254 -1.8978
  124SOL    HW2  372   1.814   2.102   2.127 -0.9573  1.0749 -1.9785
  125SOL     OW  373   1.231   1.837   1.450 -0.1864 -0.0492  0.7134
  125SOL    HW1  374   1.209   1.890   1.532  1.2989  1.1988  0.3432
  125SOL    HW2  375   1.237   1.898   1.371 -0.9815 -1.1474 -0.2344
  126SOL     OW  376   1.253   1.627   0.256  0.2253 -0.2520  0.3590
  126SOL    HW1  377   1.193   1.707   0.254  1.3195  0.5844 -1.1736
  126SOL    HW2  378   1.319   1.637   0.330  0.5116  0.3987  0.0219
  127SOL     OW  379   2.371   2.079   2.478 -0.3290 -0.1717 -0.4699
  127SOL    HW1  380   2.399   2.047   2.387 -1.4556  0.5189 -1.0798
  127SOL    HW2  381   2.297   2.146   2.469  1.3046  1.9171  0.8191
  128SOL     OW  382   2.368   0.489   1.777  0.4544 -0.5312 -1.3169
  128SOL    HW1  383   2.322   0.545   1.708 -0.2139  2.4083  1.2782
  128SOL    HW2  384   2.466   0.509   1.776  0.2779  0.4538 -0.6818
  129SOL     OW  385   1.276   0.874   0.539 -0.1788 -0.7641 -0.3278
  129SOL    HW1  386   1.253   0.821   0.456 -0.6578  1.1569 -1.4818
  129SOL    HW2  387   1.197   0.930   0.565 -0.6170 -2.4932  2.4335
  130SOL     OW  388   0.460   1.161   1.638  0.0119 -0.8906  0.2311
  130SOL    HW1  389   0.401   1.117   1.570 -0.2312  2.4098 -1.9175
  130SOL    HW2  390   0.410   1.235   1.683  0.8732 -1.6096  2.4853
  131SOL     OW  391   0.452   1.832   0.454 -0.1689 -0.5295 -0.2534
  131SOL    HW1  392   0.500   1.904   0.504 -1.0128  0.7683 -1.2856
  131SOL    HW2  393   0.403   1.774   0.519  1.2777 -0.7927  0.6663
  132SOL     OW  394   0.299   0.024   0.840 -0.0777  0.4610 -0.0806
  132SOL    HW1  395   0.368  -0.029   0.889 -1.2339 -0.5626  0.4787
  132SOL    HW2  396   0.337   0.113   0.816  0.8082  0.6642  1.9077
  133SOL     OW  397   0.521   2.159   2.229 -0.4401  0.0141  0.1079
  133SOL    HW1  398   0.608   2.177   2.274 -0.3699  3.0412 -1.0208
  133SOL    HW2  399   0.490   2.241   2.180 -4.8357 -0.2194  1.9676
  134SOL     OW  400   0.589   1.060   1.204 -0.1671 -0.0165  0.6913
  134SOL    HW1  401   0.588   0.965   1.235 -1.9048  0.4441  2.2267
  134SOL    HW2  402   0.678   1.082   1.165 -0.5186 -3.0821 -2.3525
  135SOL     OW  403   0.474   0.900   2.390  0.2490 -0.0890 -0.2111
  135SOL    HW1  404   0.565   0.935   2.366  0.8964 -0.3520  1.6901
  135SOL    HW2  405   0.481   0.844   2.473 -2.0261  2.3140  1.7844
  136SOL     OW  406   1.116   1.225   1.326 -0.1185 -0.0517 -0.7866
  136SOL    HW1  407   1.080   1.242   1.234 -2.1361 -0.8648 -0.1952
  136SOL    HW2  408   1.050   1.255   1.394  2.0639  2.1722  0.5258
  137SOL     OW  409   0.779   2.213   2.327 -0.2935  0.2666 -0.1406
  137SOL    HW1  410   0.871   2.212   2.288 -1.1037  0.9593 -2.1973
  137SOL    HW2  411   0.756   2.307   2.355 -0.6749  0.2495 -0.3917
  138SOL     OW  412   1.822   1.349   0.126  0.4162 -0.4398  0.4474
  138SOL    HW1  413   1.803   1.434   0.078 -0.1280 -1.1322 -0.6151
  138SOL    HW2  414   1.907   1.358   0.177  1.8368 -0.0964 -1.8220
  139SOL     OW  415   1.168   1.569   1.481 -0.1173  0.4811  0.3355
  139SOL    HW1  416   1.091   1.586   1.543  1.0460  0.5319  1.8205
  139SOL    HW2  417   1.196   1.655   1.438 -0.6232  0.5293  0.0942
  140SOL     OW  418   0.234   2.425   0.171 -0.2293  0.3584  0.0235
  140SOL    HW1  419   0.291   2.386   0.244 -1.1026 -0.5857  0.2157
  140SOL    HW2  420   0.194   2.352   0.117 -1.0928  1.0113 -0.2418
  141SOL     OW  421   0.163   1.112   0.634  0.0153 -0.7145  0.1802
  141SOL    HW1  422   0.098   1.045   0.598 -1.8237  0.5849  0.9703
  141SOL    HW2  423   0.150   1.122   0.733  1.7486 -0.7526  0.4393
  142SOL     OW  424   0.974   2.476   0.098 -0.1208 -0.2355 -0.3801
  142SOL    HW1  425   0.894   2.501   0.044  0.0076  0.7495 -0.1337
  142SOL    HW2  426   0.998   2.551   0.160  2.1179  0.3037 -1.7809
  143SOL     OW  427   1.472   0.538   1.007 -0.3038  0.2545  0.1714
  143SOL    HW1  428   1.519   0.621   1.036  1.1126 -0.2912 -0.5009
  143SOL    HW2  429   1.458   0.540   0.908  0.6228 -0.7213  0.0003
  144SOL     OW  430   2.325   2.347   0.189 -0.1046  0.2866  0.0895
  144SOL    HW1  431   2.320   2.446   0.201  0.3914  0.2871  0.3121
  144SOL    HW2  432   2.289   2.322   0.099  1.7523  0.8928 -0.8864
  145SOL     OW  433   2.444   0.545   0.794  0.2735 -0.7172  0.4003
  145SOL    HW1  434   2.424   0.643   0.806  0.0775 -0.5944 -0.8024
  145SOL    HW2  435   2.371   0.503   0.740  1.1704 -1.1729 -0.4783
  146SOL     OW  436   0.038   2.295   0.617  0.0200  0.1454 -0.8999
  146SOL    HW1  437   0.008   2.273   0.524 -0.2575  1.0222 -1.0356
  146SOL    HW2  438   0.049   2.394   0.625 -0.1523  0.0936  0.0655
  147SOL     OW  439   0.128   1.008   1.181  0.1677 -0.1070 -0.3316
  147SOL    HW1  440   0.151   1.100   1.213  1.5237 -1.4476  3.1002
  147SOL    HW2  441   0.038   0.982   1.215  0.0887 -0.3096 -0.6896
  148SOL     OW  442   1.536   0.317   0.579  0.3553  0.5424 -0.7169
  148SOL    HW1  443   1.611   0.355   0.527 -0.0451  0.8218 -1.0961
  148SOL    HW2  444   1.570   0.244   0.639  1.1012  1.3776 -0.1008
  149SOL     OW  445   0.700   1.589   1.860  0.2684  0.2278 -0.1978
  149SOL    HW1  446   0.719   1.679   1.900  1.9482 -0.1800  0.0035
  149SOL    HW2  447   0.713   1.518   1.930 -3.0530 -0.1121  0.2417
  150SOL     OW  448   2.341   1.190   0.734  0.4274 -0.2531 -0.3776
  150SOL    HW1  449   2.243   1.205   0.746  0.5723  1.3755 -0.9776
  150SOL    HW2  450   2.357   1.140   0.649  0.1177 -0.3378 -0.3847
  151SOL     OW  451   0.212   0.667   0.145 -0.4226 -0.0671  0.5794
  151SOL    HW1  452   0.168   0.585   0.110 -1.2081  0.0048  1.3765
  151SOL    HW2  453   0.167   0.748   0.108  1.1649  0.0476 -1.2372
  152SOL     OW  454   0.066   2.095   1.443 -0.3314 -0.1653 -0.1710
  152SOL    HW1  455   0.091   2.123   1.351 -1.8993 -2.3984 -1.3883
  152SOL    HW2  456  -0.009   2.152   1.476  0.2148  0.6218 -0.2554
  153SOL     OW  457   1.024   1.460   0.474 -0.1861 -0.8000  0.1512
  153SOL    HW1  458   1.036   1.547   0.521  1.6037 -1.0193  0.1789
  153SOL    HW2  459   1.006   1.477   0.377  0.2128 -0.4036  0.1435
  154SOL     OW  460   1.553   2.345   1.110 -0.2261  0.7346  0.0970
  154SOL    HW1  461   1.641   2.388   1.125  0.5601 -0.9031  0.3963
  154SOL    HW2  462   1.495   2.359   1.191  1.1186 -1.2591  1.5141
  155SOL     OW  463   1.188   0.482   1.067  0.5060 -0.8143  0.6816
  155SOL    HW1  464   1.135   0.547   1.120  3.2818  0.1734  2.5025
  155SOL    HW2  465   1.282   0.515   1.059  1.6026 -3.7744  0.1823
  156SOL     OW  466   1.244   0.759   1.348  1.0449  0.5070  0.1951
  156SOL    HW1  467   1.199   0.785   1.433  2.7232  2.0188  0.6770
  156SOL    HW2  468   1.175   0.733   1.281 -0.5298  2.4317  0.9681
  157SOL     OW  469   0.993   1.603   1.209  0.1023 -0.7338 -0.6552
  157SOL    HW1  470   1.057   1.568   1.278 -0.7581 -0.4920  0.2894
  157SOL    HW2  471   0.994   1.703   1.210  0.1134 -0.7275 -1.0371
  158SOL     OW  472   0.790   1.248   1.853 -0.2756 -0.3823 -0.0256
  158SOL    HW1  473   0.729   1.174   1.882  0.8778 -1.1799  0.4578
  158SOL    HW2  474   0.884   1.214   1.851  0.0317  0.4402 -2.0176
  159SOL     OW  475   1.556   0.756   1.702 -0.4507 -0.3291 -0.2571
  159SOL    HW1  476   1.459   0.750   1.679 -0.0057 -0.1080 -2.3948
  159SOL    HW2  477   1.593   0.663   1.715 -0.9515 -0.4071  0.7192
  160SOL     OW  478   2.048   0.555   1.380 -0.0970  0.6804 -0.5402
  160SOL    HW1  479   2.101   0.510   1.308 -1.6769  0.8613 -1.8594
  160SOL    HW2  480   1.964   0.503   1.397 -1.3388  2.3968 -1.1975
  161SOL     OW  481   1.924   0.777   1.286 -0.1446 -0.1553 -0.5193
  161SOL    HW1  482   2.000   0.713   1.298  1.4401  1.6945 -0.2525
  161SOL    HW2  483   1.854   0.759   1.354  1.5552  0.1459  1.4008
  162SOL     OW  484   0.769   1.229   0.529 -0.2116  0.0955  0.6896
  162SOL    HW1  485   0.856   1.225   0.480 -0.9188 -0.9416 -0.5452
  162SOL    HW2  486   0.725   1.317   0.511 -0.9809 -0.6750 -1.5787
  163SOL     OW  487   1.900   0.786   1.603  0.0454 -0.6624  0.4602
  163SOL    HW1  488   1.869   0.872   1.644 -1.0257 -0.4418 -0.7371
  163SOL    HW2  489   2.000   0.781   1.607  0.1873  1.0189 -0.1354
  164SOL     OW  490   1.842   2.245   0.797 -0.0013 -0.2135 -0.0673
  164SOL    HW1  491   1.935   2.209   0.785  0.3206  1.1762 -2.4615
  164SOL    HW2  492   1.834   2.291   0.885  1.1077 -1.6438  0.8081
  165SOL     OW  493   0.679   0.292   1.049  0.6173  0.5422  0.0567
  165SOL    HW1  494   0.714   0.257   0.963  0.8998 -2.1662  1.1668
  165SOL    HW2  495   0.587   0.330   1.036  1.0471  1.0738 -1.5652
  166SOL     OW  496   1.606   0.710   0.591 -0.0156 -0.6035 -0.1958
  166SOL    HW1  497   1.598   0.718   0.691  1.9829 -0.2037 -0.0416
  166SOL    HW2  498   1.645   0.794   0.554  2.3139 -1.9212 -0.9064
  167SOL     OW  499   2.115   1.899   2.148 -0.5317  0.0236  0.0516
  167SOL    HW1  500   2.018   1.900   2.124 -0.6302 -1.0102  0.3562
  167SOL    HW2  501   2.162   1.975   2.103 -1.3113  0.0110 -0.7944
  168SOL     OW  502   0.582   0.226   2.373 -0.1353  0.1120  0.2052
  168SOL    HW1  503   0.588   0.325   2.390 -0.7315  0.8621 -3.2351
  168SOL    HW2  504   0.497   0.191   2.412 -0.6415  1.2626  0.1800
  169SOL     OW  505   1.229   1.823   0.723  0.3997 -0.0047  0.3082
  169SOL    HW1  506   1.322   1.858   0.713 -0.1371  1.0471 -1.4262
  169SOL    HW2  507   1.174   1.889   0.773  0.4891 -0.4790  1.0459
  170SOL     OW  508   0.358   1.165   0.326 -0.1383  0.2119  0.2485
  170SOL    HW1  509   0.396   1.108   0.398 -1.1613 -0.8442 -0.0180
  170SOL    HW2  510   0.337   1.109   0.246  0.3093  1.2463 -0.6179
  171SOL     OW  511   1.716   2.206   1.431  0.7960  0.0293  0.5007
  171SOL    HW1  512   1.738   2.119   1.475  1.3164  0.1215  0.4272
  171SOL    HW2  513   1.774   2.278   1.469 -0.3685  0.5677  1.3491
  172SOL     OW  514   2.355   0.338   2.116  0.0393  0.0338  0.4230
  172SOL    HW1  515   2.292   0.414   2.131 -0.1214 -0.2886  1.4569
  172SOL    HW2  516   2.437   0.372   2.069  0.6854  1.2060  2.2672
  173SOL     OW  517   1.452   1.699   1.544 -0.1378 -0.3467  0.0797
  173SOL    HW1  518   1.483   1.725   1.635 -1.0014 -1.8935  0.8452
  173SOL    HW2  519   1.375   1.756   1.517 -0.0492 -0.0669  0.4158
  174SOL     OW  520   1.734   2.450   0.240 -0.1901  0.4210 -0.2505
  174SOL    HW1  521   1.729   2.511   0.319  2.3948  1.5730 -0.8489
  174SOL    HW2  522   1.754   2.357   0.271  0.7350  0.8488  0.4946
  175SOL     OW  523   2.183   0.663   1.158  0.5434  0.6582 -0.4023
  175SOL    HW1  524   2.282   0.652   1.155  0.4947  0.2597 -0.5732
  175SOL    HW2  525   2.145   0.654   1.066  0.2057 -0.5942 -0.1569
  176SOL     OW  526   2.385   1.544   0.245 -0.3973 -1.0412 -0.4032
  176SOL    HW1  527   2.479   1.510   0.240 -0.1934 -0.6035  0.2178
  176SOL    HW2  528   2.331   1.484   0.303 -0.6171 -1.5343 -1.1124
  177SOL     OW  529   1.065   0.214   0.253  0.2236 -0.3399 -0.0426
  177SOL    HW1  530   1.134   0.283   0.275  0.1313 -0.5625  0.9982
  177SOL    HW2  531   0.975   0.258   0.247  0.0050 -0.4928  1.6378
  178SOL     OW  532   0.478   2.057   0.177 -0.2880  0.0882 -0.1717
  178SOL    HW1  533   0.574   2.046   0.203  0.4009  0.7503 -2.2120
  178SOL    HW2  534   0.420   2.053   0.259  1.7326  3.0087  1.5663
  179SOL     OW  535   0.738   1.941   0.659 -0.1322 -0.7835 -0.1091
  179SOL    HW1  536   0.732   1.972   0.754  1.7710  0.1851 -0.2434
  179SOL    HW2  537   0.678   1.997   0.602  0.3106  0.0774  0.2369
  180SOL     OW  538   1.760   2.202   1.729 -0.1720 -0.2569  0.1929
  180SOL    HW1  539   1.792   2.296   1.741  1.9160 -0.9711  0.6512
  180SOL    HW2  540   1.809   2.142   1.791 -2.4630 -1.5190  0.9103
  181SOL     OW  541   2.064   0.556   0.881  0.2739  0.6729  0.2872
  181SOL    HW1  542   2.135   0.527   0.818 -0.8406 -0.7291 -0.3760
  181SOL    HW2  543   2.015   0.635   0.843  0.3613  0.5565 -0.0648
  182SOL     OW  544   1.197   0.784   2.186  0.4686  0.6486  0.3625
  182SOL    HW1  545   1.257   0.711   2.218 -1.4483 -0.5801  1.3970
  182SOL    HW2  546   1.132   0.747   2.120 -1.9603  0.7557  2.5197
  183SOL     OW  547   0.983   1.909   1.251  0.3403 -0.5392 -1.0013
  183SOL    HW1  548   1.009   1.941   1.343  1.1206 -0.4043 -1.2632
  183SOL    HW2  549   0.973   1.988   1.191  1.3706 -0.7028 -1.4183
  184SOL     OW  550   0.047   0.717   2.218 -0.4423  0.5706 -0.2581
  184SOL    HW1  551   0.013   0.655   2.289  2.2400  1.5073  2.0380
  184SOL    HW2  552   0.002   0.806   2.228  0.4499  0.9247  0.8369
  185SOL     OW  553   1.612   1.492   1.436  0.3351  0.3145 -0.4126
  185SOL    HW1  554   1.587   1.585   1.463 -1.0205 -0.1090 -0.1156
  185SOL    HW2  555   1.530   1.437   1.428  1.2347 -1.4205  1.4899
  186SOL     OW  556   1.561   1.559   0.844  0.0812  0.1539 -0.5866
  186SOL    HW1  557   1.567   1.517   0.753  0.0700 -0.2955 -0.3857
  186SOL    HW2  558   1.609   1.646   0.844  0.1468  0.1206 -1.0037
  187SOL     OW  559   1.451   0.608   0.126  0.4284 -0.5691 -0.2237
  187SOL    HW1  560   1.419   0.702   0.110 -0.1235 -0.8563 -0.8202
  187SOL    HW2  561   1.544   0.611   0.164  0.3574  0.2217 -0.0882
  188SOL     OW  562   2.233   1.381   2.361  0.1208  0.2128 -0.4811
  188SOL    HW1  563   2.184   1.464   2.333 -0.2376  0.0485 -0.3533
  188SOL    HW2  564   2.324   1.380   2.320 -0.4967 -0.1644 -1.8881
  189SOL     OW  565   2.341   2.182   1.599 -0.6356  0.1291 -0.2439
  189SOL    HW1  566   2.418   2.155   1.657 -0.7305  0.4622  0.0435
  189SOL    HW2  567   2.262   2.204   1.656 -0.7142  0.5091 -0.4950
  190SOL     OW  568   2.279   1.400   0.482 -0.2226  0.3541 -0.0344
  190SOL    HW1  569   2.292   1.454   0.565  0.0498  0.9143 -0.4348
  190SOL    HW2  570   2.209   1.331   0.498  1.2336 -0.8914  1.3029
  191SOL     OW  571   0.125   0.416   2.025 -0.3062 -0.0922  0.7963
  191SOL    HW1  572   0.167   0.422   2.115  0.1876  0.3237  0.5444
  191SOL    HW2  573   0.157   0.333   1.979  1.1278  0.7575  0.1815
  192SOL     OW  574   1.307   0.853   0.041 -0.0168 -0.6816  0.3973
  192SOL    HW1  575   1.227   0.905   0.069  0.0788 -1.1981  1.6768
  192SOL    HW2  576   1.303   0.838  -0.058 -0.3789  1.1375  0.1028
  193SOL     OW  577   1.913   1.102   0.067 -0.0582 -0.0336 -0.3325
  193SOL    HW1  578   1.881   1.188   0.107 -0.7420  0.3523 -1.6358
  193SOL    HW2  579   1.863   1.026   0.108  0.4592  0.1909  0.7431
  194SOL     OW  580   0.887   0.861   1.335 -0.0124  0.2760 -0.1667
  194SOL    HW1  581   0.789   0.882   1.343  0.5488  3.9866 -1.4753
  194SOL    HW2  582   0.939   0.926   1.390  1.8887  1.6155 -3.3165
  195SOL     OW  583   0.215   1.859   2.365 -0.1339 -0.0752 -0.6526
  195SOL    HW1  584   0.127   1.823   2.332 -0.1380 -0.6713 -0.0278
  195SOL    HW2  585   0.215   1.959   2.359 -0.7305 -0.0913 -0.9664
  196SOL     OW  586   0.907   2.436   1.102  0.4202 -0.4835  0.3899
  196SOL    HW1  587   0.898   2.523   1.151 -2.1074  1.2213 -2.7415
  196SOL    HW2  588   0.948   2.452   1.013  0.2095 -2.5886 -0.1320
  197SOL     OW  589   2.207   0.260   1.760  0.0824  0.1764  0.3573
  197SOL    HW1  590   2.258   0.341   1.790 -0.8711  0.3103  1.7133
  197SOL    HW2  591   2.233   0.237   1.666  1.0007  1.5379  0.2486
  198SOL     OW  592   1.605   0.745   1.129  0.3549 -0.2884 -0.3779
  198SOL    HW1  593   1.590   0.843   1.116  3.2271  0.0137 -2.4072
  198SOL    HW2  594   1.643   0.729   1.221  0.4562  0.5832 -0.2600
  199SOL     OW  595   1.519   1.305   1.901 -0.2354  0.1038 -0.3235
  199SOL    HW1  596   1.496   1.280   1.807  1.7189  0.9504 -1.0755
  199SOL    HW2  597   1.480   1.395   1.922  1.2958  1.0118 -1.1962
  200SOL     OW  598   1.953   1.993   0.496 -0.2752 -0.2915 -1.4180
  200SOL    HW1  599   1.921   1.923   0.559 -0.0976 -0.2902 -1.3280
  200SOL    HW2  600   2.017   1.953   0.431  1.4975  0.2220 -0.0475
  201SOL     OW  601   1.272   1.056   2.181 -0.1913 -0.5552 -0.6489
  201SOL    HW1  602   1.235   0.963   2.186  0.3390 -0.7620 -0.5128
  201SOL    HW2  603   1.237   1.110   2.259 -0.6785 -0.5707 -0.8547
  202SOL     OW  604   1.384   2.359   0.159 -0.0227 -0.0104  0.5106
  202SOL    HW1  605   1.420   2.451   0.142 -1.7120  0.7679  0.8999
  202SOL    HW2  606   1.306   2.342   0.099 -0.2649 -0.8592  1.0520
  203SOL     OW  607   2.296   0.343   1.216 -0.3734 -0.2826  0.2806
  203SOL    HW1  608   2.366   0.336   1.144 -1.4816  0.8380 -0.9771
  203SOL    HW2  609   2.207   0.319   1.177 -1.1547  1.3441  0.9714
  204SOL     OW  610   2.444   2.158   0.886  1.0989 -0.0902  0.0564
  204SOL    HW1  611   2.439   2.165   0.786 -1.4200 -0.8195  0.0629
  204SOL    HW2  612   2.359   2.194   0.926  1.0280 -2.0215  1.7767
  205SOL     OW  613   0.484   2.244   1.834 -0.5648 -0.1321  0.4489
  205SOL    HW1  614   0.403   2.268   1.780  0.3829 -0.0214 -0.9954
  205SOL    HW2  615   0.537   2.174   1.785 -0.0442 -0.5716  1.6106
  206SOL     OW  616   1.233   0.909   1.824  0.1139 -0.1641 -0.3111
  206SOL    HW1  617   1.248   0.836   1.756  1.6268  0.3536 -0.5667
  206SOL    HW2  618   1.307   0.976   1.818 -0.1580  0.3278  1.3069
  207SOL     OW  619   2.334   0.212   2.400 -0.7356  0.3378  0.4938
  207SOL    HW1  620   2.348   0.266   2.317 -0.8149 -1.1282 -0.5111
  207SOL    HW2  621   2.415   0.156   2.417 -1.0415  0.0346  0.9520
  208SOL     OW  622   0.129   1.907   0.547 -0.2688 -0.4306  0.4924
  208SOL    HW1  623   0.185   1.843   0.599 -1.0283 -0.0394  1.8491
  208SOL    HW2  624   0.051   1.859   0.508 -1.1034 -0.3008  1.9118
  209SOL     OW  625   1.389   1.936   0.221  0.7485 -0.2467 -0.1261
  209SOL    HW1  626   1.367   1.932   0.123  2.0165  0.9723 -0.4992
  209SOL    HW2  627   1.312   1.974   0.271 -0.3000 -1.8209 -0.4866
  210SOL     OW  628   1.522   0.098   1.899  0.4402 -0.3390  0.1857
  210SOL    HW1  629   1.452   0.162   1.931 -0.0199  0.4743 -2.2558
  210SOL    HW2  630   1.613   0.135   1.919  0.1803  1.0663 -1.0296
  211SOL     OW  631   1.212   1.686   2.423  0.1205  0.2816  0.4047
  211SOL    HW1  632   1.238   1.775   2.460 -0.0241  0.4041  0.2179
  211SOL    HW2  633   1.207   1.619   2.497  0.6640  0.3239  0.4832
  212SOL     OW  634   2.000   0.384   1.108 -0.3923  0.3678  0.1095
  212SOL    HW1  635   1.909   0.416   1.135 -0.0913  1.0466  0.3387
  212SOL    HW2  636   2.032   0.436   1.029 -0.0845  0.3338  0.2094
  213SOL     OW  637   1.495   1.245   1.632 -0.1154  0.0700  0.7340
  213SOL    HW1  638   1.448   1.296   1.560  0.0588  2.4057  2.1569
  213SOL    HW2  639   1.568   1.190   1.592  0.4801  1.8749 -0.8296
  214SOL     OW  640   1.482   0.494   2.100  0.4961 -0.1588 -0.3763
  214SOL    HW1  641   1.576   0.476   2.128  0.6128  0.1839 -0.5446
  214SOL    HW2  642   1.480   0.525   2.005  0.2023 -0.2689 -0.4095
  215SOL     OW  643   1.498   1.012   0.555  0.1740  0.1113 -0.0936
  215SOL    HW1  644   1.425   0.945   0.541  0.3302  0.0044 -0.3985
  215SOL    HW2  645   1.513   1.026   0.653 -2.2675  2.2997  0.0864
  216SOL     OW  646   0.673   1.330   1.588  0.3218  0.1208 -0.3307
  216SOL    HW1  647   0.734   1.332   1.667  2.2913 -1.0951 -1.7155
  216SOL    HW2  648   0.587   1.286   1.613  0.0901  1.5506  1.5914
  217SOL     OW  649   0.035   0.148   1.600 -1.0458 -0.4814  0.0727
  217SOL    HW1  650   0.024   0.117   1.695 -0.4208  1.7678  0.9641
  217SOL    HW2  651   0.116   0.207   1.594 -1.1907 -0.4173 -1.8283
  218SOL     OW  652   0.664   0.983   0.585 -0.4982  0.0107 -0.3621
  218SOL    HW1  653   0.569   1.005   0.566 -0.7453  1.0905  1.7094
  218SOL    HW2  654   0.718   1.068   0.588 -0.0668 -0.2743  1.1540
  219SOL     OW  655   0.517   0.189   2.113 -0.0437 -0.2938 -0.1878
  219SOL    HW1  656   0.552   0.206   2.205 -1.1083 -1.5506  0.4835
  219SOL    HW2  657   0.451   0.260   2.089  0.5389  0.2688 -0.1685
  220SOL     OW  658   1.960   0.375   1.855 -0.1725  0.4161  0.4397
  220SOL    HW1  659   2.041   0.331   1.817 -0.2243  0.9245 -0.2646
  220SOL    HW2  660   1.920   0.437   1.788 -1.7872 -0.6329  0.3726
  221SOL     OW  661   1.655   0.701   1.379  0.2119  0.1259  0.6316
  221SOL    HW1  662   1.664   0.720   1.477  1.1943 -1.5625  0.9177
  221SOL    HW2  663   1.573   0.647   1.363  1.0049 -1.1878  0.8267
  222SOL     OW  664   1.855   1.568   2.057  0.1034 -0.1301 -0.3997
  222SOL    HW1  665   1.808   1.592   1.972 -2.1785 -0.5491  0.6695
  222SOL    HW2  666   1.814   1.485   2.095 -0.9837  1.6317  2.5677
  223SOL     OW  667   1.350   2.421   2.204 -0.5907  0.2273  0.0952
  223SOL    HW1  668   1.310   2.477   2.276 -0.4268  1.0510 -0.4421
  223SOL    HW2  669   1.298   2.434   2.119  0.7939  1.3300 -0.6282
  224SOL     OW  670   2.272   1.832   1.296 -0.4847  0.3857  0.4862
  224SOL    HW1  671   2.246   1.736   1.303 -0.9533  0.3140 -1.5784
  224SOL    HW2  672   2.368   1.843   1.321 -0.3370 -0.6592  0.4100
  225SOL     OW  673   2.442   2.194   0.374 -0.6129  0.5102  0.0330
  225SOL    HW1  674   2.443   2.105   0.328  1.4065  0.6740 -0.3200
  225SOL    HW2  675   2.393   2.260   0.317 -0.7961 -0.0110 -0.4253
  226SOL     OW  676   1.541   0.992   1.103  0.5164  0.4515  0.5129
  226SOL    HW1  677   1.447   0.988   1.138 -0.1044  0.6898 -1.0281
  226SOL    HW2  678   1.589   1.068   1.146 -0.7370  1.7562 -0.3052
  227SOL     OW  679   2.471   0.822   0.850 -0.0896  0.7398  0.3190
  227SOL    HW1  680   2.543   0.887   0.873  0.3986  0.1642  0.4414
  227SOL    HW2  681   2.449   0.829   0.753  2.3125 -1.1814 -0.4577
  228SOL     OW  682   1.563   1.704   2.186 -0.2213  0.5031 -0.4887
  228SOL    HW1  683   1.601   1.781   2.237 -0.9276  1.4245 -1.3154
  228SOL    HW2  684   1.571   1.620   2.241 -1.0440  1.4737  1.1767
  229SOL     OW  685   0.032   1.861   1.888  0.2626  0.9170  0.8107
  229SOL    HW1  686  -0.006   1.872   1.980  0.6619 -0.3173  1.1329
  229SOL    HW2  687   0.066   1.768   1.876  0.6161  1.1848 -0.4456
  230SOL     OW  688   0.498   0.533   1.346 -0.0579  0.2815  0.7354
  230SOL    HW1  689   0.535   0.483   1.425  0.4181 -0.7030 -0.0872
  230SOL    HW2  690   0.405   0.503   1.329  0.7515 -1.5887 -0.7341
  231SOL     OW  691   1.422   1.197   0.379  0.0224 -0.4911  0.2520
  231SOL    HW1  692   1.494   1.215   0.312 -2.0821 -1.0642 -2.3757
  231SOL    HW2  693   1.425   1.100   0.406  0.5841 -0.3699  0.6433
  232SOL     OW  694   2.138   1.095   2.387  0.1023 -0.3088 -0.4313
  232SOL    HW1  695   2.175   1.186   2.371  1.4420 -0.3449  1.9247
  232SOL    HW2  696   2.062   1.100   2.453  0.7897 -0.9380  0.4419
  233SOL     OW  697   0.555   1.331   2.077 -0.2480 -0.2350  0.3108
  233SOL    HW1  698   0.652   1.356   2.074 -0.3568  0.0951 -1.1795
  233SOL    HW2  699   0.544   1.238   2.042 -0.4520 -0.4121  0.8220
  234SOL     OW  700   2.035   0.820   0.178 -0.5716 -0.4040  0.1487
  234SOL    HW1  701   2.105   0.891   0.189 -1.7436  1.3154 -2.5221
  234SOL    HW2  702   1.975   0.821   0.258  1.2115 -0.5501  1.5669
  235SOL     OW  703   0.834   1.500   2.092  0.3523  0.1912 -0.0436
  235SOL    HW1  704   0.860   1.576   2.152  1.1174  1.6699 -2.1495
  235SOL    HW2  705   0.895   1.422   2.109  1.2820  0.9758  0.3422
  236SOL     OW  706   1.092   2.073   2.027 -0.3976 -0.2717 -0.1320
  236SOL    HW1  707   1.123   2.005   1.960  2.7038  0.3155  0.5704
  236SOL    HW2  708   1.031   2.028   2.093 -0.0424 -1.8838 -0.8486
  237SOL     OW  709   1.793   0.405   1.404 -0.0280 -0.1858  0.3920
  237SOL    HW1  710   1.760   0.311   1.410 -0.2133 -0.1006  0.7233
  237SOL    HW2  711   1.742   0.453   1.332 -1.4807  0.2787  1.6748
  238SOL     OW  712   2.403   1.109   0.446 -0.6709  0.6000  0.0234
  238SOL    HW1  713   2.487   1.062   0.417  1.0191  1.4194  3.0747
  238SOL    HW2  714   2.374   1.173   0.374  1.7385  0.7808 -0.9014
  239SOL     OW  715   1.624   0.001   2.229  0.1871  0.6530  0.0840
  239SOL    HW1  716   1.529  -0.025   2.209  0.4105 -0.0496 -0.0932
  239SOL    HW2  717   1.676   0.006   2.143  0.2946  1.1362  0.1709
  240SOL     OW  718   0.143   2.389   1.453 -0.9212  0.0750 -0.2929
  240SOL    HW1  719   0.131   2.456   1.526  1.9707  0.5554 -0.1169
  240SOL    HW2  720   0.180   2.434   1.372 -0.9712 -0.9661 -0.9154
  241SOL     OW  721   0.285   2.214   1.634  0.5882 -0.6082 -0.3008
  241SOL    HW1  722   0.301   2.126   1.590 -0.4969 -0.5535 -0.8320
  241SOL    HW2  723   0.236   2.274   1.571  1.1334  0.3085  0.1294
  242SOL     OW  724   0.508   1.670   1.307 -0.8146  0.3144 -0.2086
  242SOL    HW1  725   0.481   1.641   1.215  0.5260  0.1584 -0.5798
  242SOL    HW2  726   0.479   1.764   1.322 -3.1523 -0.3992  0.1304
  243SOL     OW  727   0.412   0.378   0.988  0.6202  0.1395 -0.7369
  243SOL    HW1  728   0.395   0.337   0.899  0.5682 -0.6892 -0.3596
  243SOL    HW2  729   0.329   0.422   1.022  0.7918  0.9459 -1.3315
  244SOL     OW  730   0.647   2.024   1.318  0.6853 -0.7012  0.2027
  244SOL    HW1  731   0.707   1.956   1.274  0.2762 -1.2339  0.4471
  244SOL    HW2  732   0.552   1.992   1.312  0.3612  0.3511 -0.5941
  245SOL     OW  733   1.288   1.798   2.166 -0.2160  0.1310 -0.0855
  245SOL    HW1  734   1.288   1.752   2.254  0.3979  0.6600  0.1991
  245SOL    HW2  735   1.382   1.821   2.140 -0.1808 -1.6006 -1.7134
  246SOL     OW  736   1.268   0.699   1.654  0.0407  0.1765  0.0599
  246SOL    HW1  737   1.179   0.714   1.611  0.0173 -1.6612 -0.6571
  246SOL    HW2  738   1.294   0.603   1.641  2.2466  0.7403  0.0216
  247SOL     OW  739   2.217   1.340   1.460 -0.2206  0.5929  0.2445
  247SOL    HW1  740   2.240   1.294   1.545  0.8228  0.0339 -0.3209
  247SOL    HW2  741   2.180   1.274   1.394  0.7899  0.6302 -0.3867
  248SOL     OW  742   1.981   1.779   1.698  0.2844 -0.0340  0.2079
  248SOL    HW1  743   2.043   1.706   1.725  0.5276 -0.1104 -0.5506
  248SOL    HW2  744   2.002   1.809   1.605  0.2434  1.0587  0.5331
  249SOL     OW  745   0.466   2.380   2.071  0.3383  0.0944  0.7759
  249SOL    HW1  746   0.524   2.461   2.073 -0.2316  0.5744 -0.7454
  249SOL    HW2  747   0.474   2.335   1.982 -1.2811 -0.0756  0.6887
  250SOL     OW  748   0.209   2.089   1.177  0.2304 -0.2362 -0.0216
  250SOL    HW1  749   0.141   2.029   1.133 -0.9546  0.0921  1.2792
  250SOL    HW2  750   0.203   2.180   1.138 -0.2222 -0.1623  0.2108
  251SOL     OW  751   0.042   1.056   2.376 -0.7792  0.0098  0.6941
  251SOL    HW1  752   0.074   1.076   2.283 -0.4652  2.3481  1.2299
  251SOL    HW2  753   0.010   1.141   2.419 -2.7835 -1.3508  2.0545
  252SOL     OW  754   0.748   1.873   1.906 -0.0195 -0.2469  0.5111
  252SOL    HW1  755   0.704   1.962   1.914 -0.6548 -0.5114  0.0850
  252SOL    HW2  756   0.821   1.865   1.973  1.3185  1.3249 -0.6661
  253SOL     OW  757   0.270   0.359   2.271  0.2267 -0.5430 -0.8219
  253SOL    HW1  758   0.245   0.265   2.248 -4.0365  0.3647 -0.7755
  253SOL    HW2  759   0.231   0.383   2.361  1.3909  1.2025 -0.7326
  254SOL     OW  760   1.984   0.122   2.190  0.2742 -0.0697 -0.0522
  254SOL    HW1  761   2.000   0.217   2.161 -1.6005  0.8873  1.8347
  254SOL    HW2  762   2.060   0.092   2.247  0.2918  0.7431  0.3682
  255SOL     OW  763   0.918   2.203   0.967  0.1158  0.2075 -0.4683
  255SOL    HW1  764   0.828   2.164   0.946 -0.1148 -0.4150  1.4509
  255SOL    HW2  765   0.906   2.287   1.020  0.6288  2.8015 -4.0410
  256SOL     OW  766   1.781   2.472   1.778  0.1966 -0.1367  0.2853
  256SOL    HW1  767   1.760   2.446   1.872  0.1457 -1.8758 -0.1723
  256SOL    HW2  768   1.701   2.516   1.737 -0.1257 -0.2884  0.7383
  257SOL     OW  769   2.203   0.392   0.103 -0.6570  0.0162  0.0670
  257SOL    HW1  770   2.160   0.331   0.169 -1.0686 -0.8233 -0.9519
  257SOL    HW2  771   2.241   0.338   0.027  0.1558  0.9234 -0.1955
  258SOL     OW  772   0.437   0.113   1.781 -0.2270 -0.3855 -0.4592
  258SOL    HW1  773   0.514   0.103   1.844  0.7882  0.7711 -1.4634
  258SOL    HW2  774   0.454   0.059   1.699 -0.5230 -0.2034 -0.6413
  259SOL     OW  775   0.577   1.067   1.875  0.5812  0.4040 -0.0250
  259SOL    HW1  776   0.546   0.985   1.924  1.9091 -0.6467 -0.8501
  259SOL    HW2  777   0.507   1.096   1.810  0.7193 -1.0751 -0.8763
  260SOL     OW  778   2.244   1.620   0.693  0.2359 -0.1554  0.5748
  260SOL    HW1  779   2.149   1.597   0.671 -0.1180  0.1854  1.6987
  260SOL    HW2  780   2.246   1.683   0.770  1.3241  1.0296 -0.3733
  261SOL     OW  781   0.595   0.544   0.840  0.1099  0.0920 -0.3618
  261SOL    HW1  782   0.524   0.478   0.863  1.9356 -1.5965  0.8320
  261SOL    HW2  783   0.554   0.632   0.820 -2.3360 -1.0010 -0.5074
  262SOL     OW  784   1.816   2.095   1.208 -0.1309  0.0588  0.0992
  262SOL    HW1  785   1.766   2.117   1.292  1.1466  1.3023  0.5711
  262SOL    HW2  786   1.911   2.071   1.231 -0.5827 -2.9204 -0.7020
  263SOL     OW  787   1.515   1.896   1.327 -0.0589  0.2335  0.0649
  263SOL    HW1  788   1.422   1.878   1.357 -0.0153 -2.0554 -0.9345
  263SOL    HW2  789   1.540   1.831   1.256  1.5959  2.1647 -1.2372
  264SOL     OW  790   0.364   1.433   0.401  0.6634 -0.2574  0.5606
  264SOL    HW1  791   0.453   1.455   0.440 -0.0759 -0.5702  2.4948
  264SOL    HW2  792   0.369   1.344   0.356  1.9756  0.8665 -1.7068
  265SOL     OW  793   1.167   2.090   0.348 -0.1438  0.4968 -0.1230
  265SOL    HW1  794   1.104   2.050   0.415  0.2823  0.6114  0.3489
  265SOL    HW2  795   1.221   2.162   0.392  0.4846  0.2369 -0.4654
  266SOL     OW  796   0.767   1.677   0.688  0.3423 -0.5290  0.0439
  266SOL    HW1  797   0.865   1.676   0.670  0.5310  0.8711  0.8029
  266SOL    HW2  798   0.731   1.769   0.669 -0.8127 -1.0102 -0.1754
  267SOL     OW  799   1.600   0.972   2.271 -0.4400 -0.1545 -0.0228
  267SOL    HW1  800   1.554   0.961   2.183 -0.1049  0.7012 -0.3185
  267SOL    HW2  801   1.688   1.018   2.257 -0.3538 -0.0653  0.7565
  268SOL     OW  802   1.186   1.937   1.676  0.2173  0.1617  0.4941
  268SOL    HW1  803   1.188   1.876   1.755 -3.4911 -1.6700 -0.5519
  268SOL    HW2  804   1.232   2.022   1.698  2.4130 -1.5807  3.3337
  269SOL     OW  805   2.299   1.015   0.924  0.2738  0.0808  0.0955
  269SOL    HW1  806   2.358   0.939   0.897 -0.6556 -0.4917 -0.4026
  269SOL    HW2  807   2.331   1.100   0.883 -0.9719 -0.7239 -2.7761
  270SOL     OW  808   1.561   1.835   0.404 -0.4245  0.2024 -0.4899
  270SOL    HW1  809   1.656   1.816   0.379 -0.1872  0.1425  0.4293
  270SOL    HW2  810   1.509   1.856   0.322 -0.2444 -2.3575 -1.3567
  271SOL     OW  811   0.746   1.850   1.620 -0.1852  0.3487 -0.0714
  271SOL    HW1  812   0.753   1.849   1.720 -1.5597 -0.9108  0.0574
  271SOL    HW2  813   0.702   1.766   1.590  0.0618  0.7927 -1.7427
  272SOL     OW  814   0.336   2.107   2.420 -0.0674  0.2713 -0.2914
  272SOL    HW1  815   0.398   2.145   2.351  0.2998  1.1755  0.5251
  272SOL    HW2  816   0.389   2.071   2.496 -0.4680 -0.8776 -0.5332
  273SOL     OW  817   1.882   1.789   0.660  0.4769 -0.0865 -0.2815
  273SOL    HW1  818   1.863   1.825   0.752  1.6030  0.6535 -0.3148
  273SOL    HW2  819   1.911   1.694   0.667 -1.0994 -0.5777 -0.0477
  274SOL     OW  820   1.392   1.639   0.512 -0.3544 -0.0150 -0.0060
  274SOL    HW1  821   1.461   1.704   0.480 -0.3131  0.0260  0.1654
  274SOL    HW2  822   1.329   1.685   0.574 -1.2776  0.2556 -1.1254
  275SOL     OW  823   1.221   0.455   0.289  0.5392 -0.2459  0.2601
  275SOL    HW1  824   1.199   0.501   0.375  0.7837  0.9990 -0.3200
  275SOL    HW2  825   1.305   0.494   0.251 -0.2809  0.1732 -1.2043
  276SOL     OW  826   1.730   0.478   0.480 -0.2407  0.5007 -0.4841
  276SOL    HW1  827   1.821   0.442   0.501 -0.1324  1.3817  0.6124
  276SOL    HW2  828   1.710   0.555   0.540 -1.3289  0.9271 -1.3683
  277SOL     OW  829   1.754   0.466   2.220 -1.2703 -0.1200  0.1633
  277SOL    HW1  830   1.834   0.418   2.183 -2.1777 -0.2894 -1.6891
  277SOL    HW2  831   1.784   0.550   2.264 -0.0248 -0.3757 -0.1499
  278SOL     OW  832   0.400   1.002   0.550 -0.0715  0.8457 -0.0013
  278SOL    HW1  833   0.375   0.906   0.541  1.5685  0.4669 -0.8657
  278SOL    HW2  834   0.321   1.054   0.585 -1.4532 -0.5461 -0.9274
  279SOL     OW  835   1.907   2.180   0.065 -0.3165  0.0774  0.0209
  279SOL    HW1  836   1.858   2.258   0.027 -1.5533 -0.0978  1.1947
  279SOL    HW2  837   1.906   2.185   0.165 -4.0384 -3.4661  0.4080
  280SOL     OW  838   2.313   1.204   0.147  0.1082  0.2365  0.2034
  280SOL    HW1  839   2.399   1.245   0.178  1.1389 -0.7779 -1.1623
  280SOL    HW2  840   2.284   1.249   0.062 -0.4993  0.2997  0.4420
  281SOL     OW  841   1.056   0.506   0.057 -0.3044  0.0996  0.2827
  281SOL    HW1  842   1.108   0.494   0.142 -2.5659 -1.5146  1.5428
  281SOL    HW2  843   1.084   0.437  -0.009 -1.2654 -1.2427  1.2214
  282SOL     OW  844   0.379   2.294   0.359 -0.2179 -0.0777 -0.0218
  282SOL    HW1  845   0.475   2.324   0.359  0.6303 -2.4930 -1.8473
  282SOL    HW2  846   0.375   2.195   0.372 -2.4748 -0.0610 -0.1799
  283SOL     OW  847   1.723   1.919   1.519 -0.0144  0.0501  0.0398
  283SOL    HW1  848   1.647   1.921   1.454 -0.9504 -0.7117  1.0915
  283SOL    HW2  849   1.689   1.895   1.610  1.1130  2.0818  1.0613
  284SOL     OW  850   0.336   1.254   1.915 -0.0875 -0.1974 -0.2688
  284SOL    HW1  851   0.393   1.322   1.961 -0.4574 -0.9243  1.3248
  284SOL    HW2  852   0.298   1.294   1.832 -0.1136  1.4837  0.5098
  285SOL     OW  853   0.255   0.767   1.489 -0.2561 -0.7557 -0.5495
  285SOL    HW1  854   0.260   0.702   1.414 -0.1050  1.0236 -2.1406
  285SOL    HW2  855   0.264   0.860   1.454  0.5338  0.1186  1.7522
  286SOL     OW  856   1.883   2.432   1.497 -0.1634 -0.0095  0.1373
  286SOL    HW1  857   1.907   2.438   1.594  1.6535 -0.2101 -0.2583
  286SOL    HW2  858   1.959   2.467   1.442 -1.8428  1.7411 -1.1941
  287SOL     OW  859   1.460   1.558   1.963 -0.2918  0.2206 -0.8779
  287SOL    HW1  860   1.493   1.619   2.035  0.7072  0.4358 -1.5116
  287SOL    HW2  861   1.454   1.607   1.876  1.3935 -0.7715 -1.5962
  288SOL     OW  862   0.839   1.083   1.123  0.0022  0.1067 -0.1170
  288SOL    HW1  863   0.859   1.067   1.026 -0.1245 -2.1721  0.1721
  288SOL    HW2  864   0.907   1.146   1.161  0.3961  0.5821 -1.5289
  289SOL     OW  865   0.745   1.285   1.340  0.3821 -1.0421 -0.1236
  289SOL    HW1  866   0.702   1.298   1.430  0.6563 -0.0385 -0.1292
  289SOL    HW2  867   0.699   1.211   1.291 -2.8932  1.4132 -1.0714
  290SOL     OW  868   1.336   1.004   1.320  0.1689  0.0493  0.4982
  290SOL    HW1  869   1.299   0.911   1.322  1.2299 -0.3702  2.0858
  290SOL    HW2  870   1.261   1.070   1.318 -0.6739 -0.8043  2.2352
  291SOL     OW  871   1.029   0.194   1.887  0.1551 -0.1445  0.4249
  291SOL    HW1  872   0.986   0.216   1.975 -1.3455 -0.1670 -0.2685
  291SOL    HW2  873   0.961   0.202   1.814  1.5985  0.7975 -0.8747
  292SOL     OW  874   1.047   0.364   1.468  0.1299 -0.6602  0.3451
  292SOL    HW1  875   1.112   0.335   1.539  1.2445  0.7894 -0.0339
  292SOL    HW2  876   0.985   0.433   1.505  1.0828  0.5253 -0.1957
  293SOL     OW  877   0.521   0.833   1.989  0.9143  0.1171 -0.4596
  293SOL    HW1  878   0.450   0.823   2.059  2.4457 -1.6576  0.9644
  293SOL    HW2  879   0.503   0.770   1.913  0.5398  0.2692 -0.4958
  294SOL     OW  880   1.402   0.591   0.442 -0.1255 -0.7387  0.1965
  294SOL    HW1  881   1.433   0.497   0.455 -2.4411 -1.7027 -0.7266
  294SOL    HW2  882   1.466   0.653   0.486  3.3913 -2.4600 -1.9670
  295SOL     OW  883   1.488   2.356   0.735  0.0276 -0.1772  0.1362
  295SOL    HW1  884   1.526   2.264   0.748  0.0648  0.0530  1.8758
  295SOL    HW2  885   1.401   2.363   0.785 -1.8371 -0.3234 -2.8050
  296SOL     OW  886   1.854   1.101   2.269  0.0149 -0.3519  0.0334
  296SOL    HW1  887   1.889   1.124   2.360  0.6528  0.1763 -0.3341
  296SOL    HW2  888   1.907   1.026   2.231  0.2288 -0.0901 -0.1932
  297SOL     OW  889   2.092   2.028   1.287  0.1365  0.1052  0.3346
  297SOL    HW1  890   2.133   2.115   1.315  0.9044 -0.0652 -0.2293
  297SOL    HW2  891   2.163   1.958   1.281 -0.5701 -0.7347  1.4095
  298SOL     OW  892   2.464   1.425   1.691  0.4306  0.2856  0.1679
  298SOL    HW1  893   2.439   1.493   1.622 -0.0501  0.6953  0.7390
  298SOL    HW2  894   2.401   1.348   1.685 -1.6623  1.7027  2.1888
  299SOL     OW  895   2.121   2.043   0.918  0.0670  0.2492  0.1868
  299SOL    HW1  896   2.151   2.113   0.982  1.4947  0.4586 -0.6636
  299SOL    HW2  897   2.162   2.060   0.828  0.9966 -2.0126  0.1042
  300SOL     OW  898   0.938   0.281   2.153  0.1511  0.1018  0.2825
  300SOL    HW1  899   1.019   0.312   2.203  0.0224 -0.3161  0.7577
  300SOL    HW2  900   0.874   0.357   2.143  0.4113  0.3225  0.2882
  301SOL     OW  901   0.773   0.940   2.081 -0.6747  0.1843 -0.0586
  301SOL    HW1  902   0.817   0.851   2.089 -2.1519 -0.5541  0.2557
  301SOL    HW2  903   0.676   0.927   2.058 -0.8363  1.7240 -0.3689
  302SOL     OW  904   0.463   0.567   1.833  0.3486 -0.4639 -0.0902
  302SOL    HW1  905   0.379   0.521   1.862  0.2127  0.4807  1.0874
  302SOL    HW2  906   0.442   0.632   1.760 -0.3344  1.1248  1.4421
  303SOL     OW  907   1.706   1.566   0.589  0.1729  0.4107 -0.0326
  303SOL    HW1  908   1.730   1.663   0.585  1.1282  0.1692 -0.4966
  303SOL    HW2  909   1.677   1.535   0.498 -1.9474  0.6814  0.4955
  304SOL     OW  910   0.502   0.115   0.550  0.1744 -0.3221  0.3148
  304SOL    HW1  911   0.425   0.092   0.491  1.5974  0.0878 -1.7918
  304SOL    HW2  912   0.514   0.043   0.618 -0.3738 -1.7857 -1.0783
  305SOL     OW  913   2.316   1.648   1.583  0.2307 -0.2838 -0.4667
  305SOL    HW1  914   2.355   1.740   1.595  0.5744 -0.3880 -0.7772
  305SOL    HW2  915   2.263   1.645   1.499 -1.1766  0.1002  0.3748
  306SOL     OW  916   0.793   1.306   0.155  0.0314  0.5618 -0.0391
  306SOL    HW1  917   0.770   1.253   0.237 -0.1821  1.3081  0.3854
  306SOL    HW2  918   0.746   1.266   0.076  0.8479 -0.6377  0.0492
  307SOL     OW  919   0.765   1.685   2.428 -0.7633 -0.1725 -0.2073
  307SOL    HW1  920   0.817   1.641   2.501 -0.2729 -1.2500 -1.1716
  307SOL    HW2  921   0.672   1.703   2.459 -0.9781 -1.9078  0.2382
  308SOL     OW  922   0.637   1.672   0.315  0.1606  0.2314  0.1505
  308SOL    HW1  923   0.571   1.733   0.359 -1.5748 -0.2417 -1.6614
  308SOL    HW2  924   0.596   1.632   0.233  2.3594 -0.9328 -0.4549
  309SOL     OW  925   1.233   2.067   1.302 -0.6269  0.3761 -0.3629
  309SOL    HW1  926   1.301   2.101   1.367 -1.7899 -0.2241  1.2298
  309SOL    HW2  927   1.177   2.143   1.270 -0.1401  0.6593 -0.5456
  310SOL     OW  928   1.146   2.435   1.995 -0.9133 -0.1655 -0.6988
  310SOL    HW1  929   1.131   2.398   1.903 -0.7692  0.7405 -1.0926
  310SOL    HW2  930   1.133   2.534   1.994  3.4375  0.5752 -0.7597
  311SOL     OW  931   0.021   2.068   2.218  0.5260  1.3002 -0.0965
  311SOL    HW1  932   0.110   2.054   2.173  0.2000 -1.2771 -0.0858
  311SOL    HW2  933  -0.046   2.097   2.150  0.6683  0.0921 -0.7874
  312SOL     OW  934   0.841   0.019   2.101  0.1788 -0.1426  0.1329
  312SOL    HW1  935   0.775   0.038   2.028  0.2099 -1.8204 -0.3876
  312SOL    HW2  936   0.880   0.104   2.134 -0.3517  0.7061 -1.3396
  313SOL     OW  937   2.300   0.134   0.277  0.3360  0.4177 -0.7264
  313SOL    HW1  938   2.201   0.150   0.280  0.3846  0.6606 -0.3698
  313SOL    HW2  939   2.337   0.135   0.370  0.6777  0.3326 -0.8589
  314SOL     OW  940   2.481   0.402   1.013  0.5535 -0.1186 -0.4552
  314SOL    HW1  941   2.571   0.410   1.057  0.4690 -0.2358 -0.2619
  314SOL    HW2  942   2.476   0.465   0.936  1.7667 -1.9357 -2.1132
  315SOL     OW  943   0.099   0.064   0.638  0.6131 -0.0625 -0.3196
  315SOL    HW1  944   0.174   0.054   0.704  1.0908 -0.0861 -0.8585
  315SOL    HW2  945   0.137   0.077   0.547 -0.0459 -1.2064 -0.7752
  316SOL     OW  946   0.273   1.382   0.994  0.1793  0.1036 -0.6041
  316SOL    HW1  947   0.202   1.389   0.924 -0.9179 -1.7768  0.2449
  316SOL    HW2  948   0.349   1.327   0.960  0.2488  0.3051 -0.7736
  317SOL     OW  949   0.336   1.945   1.652 -0.2176 -0.3124 -0.2016
  317SOL    HW1  950   0.372   1.858   1.686 -1.1307 -0.8928 -0.6769
  317SOL    HW2  951   0.279   1.928   1.571 -0.4428  0.7226 -0.2708
  318SOL     OW  952   1.431   2.449   1.661  0.3192  0.1892 -0.2943
  318SOL    HW1  953   1.500   2.477   1.594  2.6314 -0.4996  1.6356
  318SOL    HW2  954   1.455   2.488   1.751 -0.9167 -1.3817  0.7674
  319SOL     OW  955   1.817   2.425   2.048 -0.1484 -0.1105  0.1516
  319SOL    HW1  956   1.880   2.472   2.110  1.1891 -1.0971 -0.3847
  319SOL    HW2  957   1.791   2.337   2.087 -1.1532  0.2666  0.3353
  320SOL     OW  958   1.313   2.348   0.445  0.2273  0.3707 -0.1976
  320SOL    HW1  959   1.351   2.354   0.352  2.1624  0.7395  0.5710
  320SOL    HW2  960   1.384   2.371   0.511 -1.3722  1.0248  1.3553
  321SOL     OW  961   1.353   1.980   1.065  0.6693  0.4597 -0.0303
  321SOL    HW1  962   1.449   1.996   1.044  1.0333 -1.0040  0.4290
  321SOL    HW2  963   1.337   1.995   1.163  0.4004  0.7934 -0.1222
  322SOL     OW  964   0.596   0.396   1.570 -0.0412 -0.5193 -0.0311
  322SOL    HW1  965   0.599   0.298   1.552 -2.2352 -0.4365 -1.1520
  322SOL    HW2  966   0.618   0.413   1.667 -0.1727 -2.1609  0.3050
  323SOL     OW  967   1.472   1.903   0.659 -0.4106 -0.2737 -0.0752
  323SOL    HW1  968   1.510   1.994   0.676  0.4188 -0.5448 -0.4531
  323SOL    HW2  969   1.487   1.877   0.564  0.7548 -1.4376  0.3933
  324SOL     OW  970   0.267   1.822   0.903 -0.1153  0.7285 -0.1012
  324SOL    HW1  971   0.177   1.859   0.923 -0.2757  0.6312 -0.6176
  324SOL    HW2  972   0.292   1.755   0.973  0.1367  1.7207  0.7813
  325SOL     OW  973   0.230   0.091   2.270 -0.8876  0.4938  0.2256
  325SOL    HW1  974   0.249   0.016   2.207  0.1562  0.4304  0.6020
  325SOL    HW2  975   0.159   0.063   2.334  1.9829 -1.6575  2.7650
  326SOL     OW  976   1.216   0.215   0.025 -0.5041  0.0050 -0.1899
  326SOL    HW1  977   1.170   0.171   0.101  3.5892 -3.2528  0.7888
  326SOL    HW2  978   1.287   0.277   0.060  0.0418  0.0818 -1.3590
  327SOL     OW  979   0.214   1.363   2.468  0.0225 -0.1341 -0.3551
  327SOL    HW1  980   0.297   1.370   2.414  0.9178 -0.2762  0.9650
  327SOL    HW2  981   0.216   1.430   2.543 -0.8348 -0.4485 -0.0310
  328SOL     OW  982   0.902   2.301   0.328  0.5977 -0.2934 -0.0705
  328SOL    HW1  983   0.913   2.346   0.240  0.2125  1.7027  0.8520
  328SOL    HW2  984   0.949   2.354   0.399 -0.0237 -1.2591  1.1006
  329SOL     OW  985   0.012   0.763   1.606  0.2112 -0.5934  0.2082
  329SOL    HW1  986   0.098   0.748   1.557  0.9915 -0.5846  1.5435
  329SOL    HW2  987  -0.050   0.816   1.548  2.1832  2.0229  0.3029
  330SOL     OW  988   0.357   0.278   0.736 -0.2609  0.2443 -0.1513
  330SOL    HW1  989   0.390   0.234   0.653  1.8278  1.2649  0.0661
  330SOL    HW2  990   0.292   0.350   0.712 -1.3171 -0.8468 -0.7046
  331SOL     OW  991   0.583   0.795   1.291  0.2896  0.4235 -0.0029
  331SOL    HW1  992   0.613   0.825   1.382  0.8220  2.1117 -0.6884
  331SOL    HW2  993   0.571   0.696   1.291 -1.9466  0.5683  2.5577
  332SOL     OW  994   2.216   0.480   0.684  0.3952  0.0486 -0.0211
  332SOL    HW1  995   2.185   0.537   0.608 -0.7073  0.8783  1.0180
  332SOL    HW2  996   2.190   0.385   0.667 -0.9510  0.4136 -0.1290
  333SOL     OW  997   2.054   2.431   0.674 -0.2438 -0.5893 -0.0125
  333SOL    HW1  998   1.993   2.451   0.751 -0.5964  0.1568 -0.4817
  333SOL    HW2  999   2.060   2.332   0.662 -1.0147 -0.6825  0.3106
  334SOL     OW 1000   1.552   1.778   1.780  0.0175  0.3669  0.3144
  334SOL    HW1 1001   1.629   1.731   1.824 -0.5891 -1.6533 -0.6722
  334SOL    HW2 1002   1.551   1.874   1.809  1.3056 -0.1862  2.4323
  335SOL     OW 1003   0.002   1.869   1.597  0.0254 -0.6709  0.3469
  335SOL    HW1 1004   0.014   1.963   1.563 -1.3684 -0.7454 -0.4068
  335SOL    HW2 1005   0.010   1.869   1.697 -0.1505  0.2906  0.3752
  336SOL     OW 1006   1.698   1.213   0.700  0.4659  0.3626 -0.0449
  336SOL    HW1 1007   1.643   1.254   0.772 -2.3452 -1.2470 -1.1379
  336SOL    HW2 1008   1.733   1.124   0.732 -1.9859 -1.0312 -1.0375
  337SOL     OW 1009   2.170   0.211   0.666 -0.0220  0.0735  0.0558
  337SOL    HW1 1010   2.129   0.121   0.648  0.6356 -0.3364  0.5368
  337SOL    HW2 1011   2.238   0.202   0.739 -1.0237  1.2441  1.1937
  338SOL     OW 1012   1.590   1.481   2.360 -0.4156 -0.0714 -0.1148
  338SOL    HW1 1013   1.657   1.416   2.324 -0.0247 -0.9457  2.0662
  338SOL    HW2 1014   1.501   1.437   2.369 -0.0987 -0.4265  1.5742
  339SOL     OW 1015   1.023   1.100   1.906  0.3369 -0.5350  1.0734
  339SOL    HW1 1016   1.096   1.039   1.877 -0.4331 -0.5964 -0.9348
  339SOL    HW2 1017   0.934   1.059   1.883 -0.2074  1.4176 -0.6969
  340SOL     OW 1018   0.054   2.107   1.783  0.2099  0.3979  0.1905
  340SOL    HW1 1019   0.058   2.017   1.828 -0.2119 -0.4038 -1.3123
  340SOL    HW2 1020   0.134   2.119   1.724 -0.1456  0.6567 -0.2461
  341SOL     OW 1021   1.046   1.193   0.676  0.1469  0.0477  0.7074
  341SOL    HW1 1022   1.037   1.139   0.592 -1.5264 -0.9670  1.4910
  341SOL    HW2 1023   1.050   1.291   0.653  0.3990 -0.2503 -0.5743
  342SOL     OW 1024   0.420   1.609   1.057 -0.0852 -0.3493  0.0692
  342SOL    HW1 1025   0.499   1.576   1.005  0.2739 -1.1454  1.0670
  342SOL    HW2 1026   0.349   1.539   1.057 -0.4819  0.0541 -0.1833
  343SOL     OW 1027   1.359   0.443   1.658  0.5607 -0.0968 -0.4900
  343SOL    HW1 1028   1.426   0.425   1.730  0.4766 -0.2491 -0.4501
  343SOL    HW2 1029   1.300   0.363   1.647 -0.8501  0.7191  0.8102
  344SOL     OW 1030   0.076   0.881   0.086  0.0323  0.4933  0.1402
  344SOL    HW1 1031   0.044   0.946   0.017  0.5008  1.7742  1.0735
  344SOL    HW2 1032  -0.002   0.849   0.141 -0.1890  0.3395 -0.2596
  345SOL     OW 1033   2.149   1.585   1.787 -0.0531  1.1160  0.1824
  345SOL    HW1 1034   2.213   1.570   1.711 -1.5791 -1.2429 -0.7584
  345SOL    HW2 1035   2.200   1.617   1.867  1.7892  2.5233 -1.4350
  346SOL     OW 1036   1.028   0.331   0.927  0.1343 -0.7428  0.1077
  346SOL    HW1 1037   1.061   0.239   0.904  1.3284 -0.1831 -0.5043
  346SOL    HW2 1038   1.102   0.382   0.971 -0.3895  0.0680  0.0553
  347SOL     OW 1039   1.789   1.158   1.490 -0.0741  0.1602 -0.0505
  347SOL    HW1 1040   1.837   1.173   1.577 -2.5356 -0.3147  1.5077
  347SOL    HW2 1041   1.709   1.100   1.506 -1.0574  0.7117 -2.5048
  348SOL     OW 1042   1.445   0.345   0.047  0.1023 -0.1474 -0.2998
  348SOL    HW1 1043   1.453   0.444   0.059 -0.5210 -0.0543 -0.6020
  348SOL    HW2 1044   1.514   0.314  -0.019  0.1346  0.1235 -0.3950
  349SOL     OW 1045   0.889   0.864   0.324 -0.2728 -0.2939  0.1539
  349SOL    HW1 1046   0.793   0.892   0.323  0.0615  1.0398  1.4267
  349SOL    HW2 1047   0.895   0.769   0.354 -1.2967 -1.1194 -2.0487
  350SOL     OW 1048   0.847   0.203   1.241 -0.8797  0.7637  0.1161
  350SOL    HW1 1049   0.788   0.233   1.167 -0.7848  0.2461 -0.1766
  350SOL    HW2 1050   0.920   0.270   1.256 -0.1090  0.2436 -1.1636
  351SOL     OW 1051   2.011   0.133   1.166 -0.1446 -0.3350 -0.2096
  351SOL    HW1 1052   1.991   0.228   1.142  0.1810 -0.7017 -2.0785
  351SOL    HW2 1053   2.089   0.101   1.112  1.0532 -1.0679  1.8714
  352SOL     OW 1054   1.985   0.380   2.104  1.1410  0.2850 -0.6010
  352SOL    HW1 1055   1.964   0.374   2.006  1.2187  3.2431 -0.9139
  352SOL    HW2 1056   2.061   0.444   2.117  2.2201 -1.2998  1.3185
  353SOL     OW 1057   1.483   1.018   0.835  0.2934 -0.3667 -0.1345
  353SOL    HW1 1058   1.499   1.031   0.933  0.1430 -1.2724  0.0165
  353SOL    HW2 1059   1.397   1.063   0.810 -1.0090 -2.2541  0.6871
  354SOL     OW 1060   0.381   1.688   2.282  0.3448  0.5615  0.2012
  354SOL    HW1 1061   0.381   1.678   2.183  1.1344 -0.2269  0.2674
  354SOL    HW2 1062   0.306   1.748   2.310  0.1314  0.8066 -0.8675
  355SOL     OW 1063   0.556   0.672   0.416  0.2516 -0.2807  0.1895
  355SOL    HW1 1064   0.634   0.698   0.472  0.0305 -0.3157  0.5161
  355SOL    HW2 1065   0.475   0.664   0.473  0.1070 -0.7051 -0.0694
  356SOL     OW 1066   0.843   0.929   1.760 -0.7480  0.3820  0.3327
  356SOL    HW1 1067   0.820   0.894   1.670  0.8635  0.1830 -0.0262
  356SOL    HW2 1068   0.774   0.898   1.826 -0.5998 -1.5774 -0.3700
  357SOL     OW 1069   1.494   0.116   0.175 -0.3074 -0.1934  0.1342
  357SOL    HW1 1070   1.578   0.111   0.230 -1.0553  1.5308  1.5390
  357SOL    HW2 1071   1.487   0.207   0.134 -0.3988 -1.0581 -1.8463
  358SOL     OW 1072   1.301   2.154   2.237 -0.7477 -0.1091  0.1486
  358SOL    HW1 1073   1.268   2.122   2.148 -2.5509 -0.8716  1.0356
  358SOL    HW2 1074   1.317   2.253   2.233 -0.5671 -0.1776 -1.0800
  359SOL     OW 1075   0.801   1.453   1.130 -0.4765  0.1339  0.3738
  359SOL    HW1 1076   0.768   1.391   1.201  1.2642 -1.2651  0.0164
  359SOL    HW2 1077   0.872   1.512   1.167 -1.6274  1.5000  0.5196
  360SOL     OW 1078   2.310   1.634   2.085  0.5116 -0.6833 -0.3228
  360SOL    HW1 1079   2.227   1.600   2.130  0.6254 -1.8672 -0.9572
  360SOL    HW2 1080   2.381   1.651   2.154 -0.1873  0.1904  0.2069
  361SOL     OW 1081   2.234   0.648   0.119  0.0667  0.5484  0.0259
  361SOL    HW1 1082   2.221   0.549   0.116 -0.3236  0.6161 -1.6253
  361SOL    HW2 1083   2.148   0.692   0.144  0.1465  0.4824  0.4133
  362SOL     OW 1084   0.645   1.471   0.507 -0.6519  0.2326  0.3515
  362SOL    HW1 1085   0.664   1.530   0.429  1.6646 -1.6585 -0.6569
  362SOL    HW2 1086   0.678   1.514   0.591 -0.2254  0.9320 -0.1682
  363SOL     OW 1087   0.451   1.085   0.947  0.3138 -0.3011  0.2126
  363SOL    HW1 1088   0.508   1.057   1.025  0.6260  0.1533  0.1530
  363SOL    HW2 1089   0.479   1.176   0.917 -1.4490  0.5787  1.1277
  364SOL     OW 1090   0.942   1.944   0.462  0.2437  0.8834  0.5329
  364SOL    HW1 1091   0.902   1.933   0.553 -2.9260 -2.0355 -1.0050
  364SOL    HW2 1092   0.877   1.988   0.401  0.8430 -0.4305 -1.1502
  365SOL     OW 1093   0.439   1.424   2.301  0.2611  0.1689 -0.1283
  365SOL    HW1 1094   0.478   1.396   2.213  1.6442 -0.0860  0.5424
  365SOL    HW2 1095   0.433   1.523   2.305 -1.5924  0.1481 -1.2287
  366SOL     OW 1096   1.032   0.982   0.084  0.0164 -0.0090  0.3431
  366SOL    HW1 1097   0.940   0.981   0.122  0.7929  0.4949  2.3706
  366SOL    HW2 1098   1.081   1.062   0.117  2.0303 -1.6200  1.5043
  367SOL     OW 1099   0.982   0.740   2.409  0.1366 -0.0538  0.3098
  367SOL    HW1 1100   1.027   0.665   2.458 -1.6688 -0.5544  1.2952
  367SOL    HW2 1101   1.001   0.826   2.456  1.9528  0.1195 -0.6423
  368SOL     OW 1102   2.374   2.369   2.137 -0.1554  0.4585 -0.0155
  368SOL    HW1 1103   2.363   2.272   2.113  1.8560  0.1008  0.3304
  368SOL    HW2 1104   2.359   2.425   2.056  1.4049 -0.3611 -0.9162
  369SOL     OW 1105   1.065   0.680   0.779 -0.2993  0.2025  0.6623
  369SOL    HW1 1106   1.101   0.767   0.811 -0.8947  0.6846  0.0732
  369SOL    HW2 1107   0.990   0.651   0.839 -1.3335  1.0440 -0.1645
  370SOL     OW 1108   0.178   0.467   0.660  0.0120 -0.2897  0.9237
  370SOL    HW1 1109   0.096   0.505   0.703  0.2007  0.7944  0.3595
  370SOL    HW2 1110   0.173   0.481   0.561  1.5237  1.1625  0.9964
  371SOL     OW 1111   1.770   1.637   1.815 -0.5329  0.0234 -0.2115
  371SOL    HW1 1112   1.837   1.702   1.779 -1.1476  0.4566 -0.5830
  371SOL    HW2 1113   1.780   1.550   1.768 -0.9912  0.4327 -1.1034
  372SOL     OW 1114   0.469   1.709   1.754  0.5111 -0.0298 -0.2632
  372SOL    HW1 1115   0.557   1.676   1.788 -0.4609 -1.3842  1.0621
  372SOL    HW2 1116   0.449   1.665   1.666  1.1441  0.3059 -0.5854
  373SOL     OW 1117   2.247   2.269   1.357 -0.2967  0.4844 -0.1042
  373SOL    HW1 1118   2.291   2.244   1.444  0.2890 -0.7754 -0.7442
  373SOL    HW2 1119   2.190   2.350   1.371  0.5992  0.9117  1.2181
  374SOL     OW 1120   0.853   0.517   1.501  0.5042 -0.7776  0.0362
  374SOL    HW1 1121   0.860   0.496   1.404  0.4142  0.5984 -0.2996
  374SOL    HW2 1122   0.762   0.492   1.534 -0.7149  1.7649 -1.0961
  375SOL     OW 1123   2.067   1.653   0.265 -0.0734  0.4999 -0.0037
  375SOL    HW1 1124   1.976   1.693   0.279 -0.2882 -0.0783  0.2568
  375SOL    HW2 1125   2.058   1.563   0.224  0.4236  0.8000 -0.7825
  376SOL     OW 1126   1.425   1.072   1.955 -0.1026  0.1767  0.6431
  376SOL    HW1 1127   1.463   1.161   1.932 -1.4055  0.3271 -1.0681
  376SOL    HW2 1128   1.358   1.082   2.029 -1.8797  1.0085 -1.0159
  377SOL     OW 1129   1.055   0.702   1.155 -0.0796 -0.0989 -0.1589
  377SOL    HW1 1130   1.068   0.738   1.062 -0.3785  0.3807 -0.0206
  377SOL    HW2 1131   0.986   0.756   1.202  1.3769  0.8644  0.9792
  378SOL     OW 1132   1.940   1.038   1.287  0.6294  0.3883 -0.0903
  378SOL    HW1 1133   1.882   1.066   1.364 -0.2443  0.8743 -0.9179
  378SOL    HW2 1134   1.948   0.938   1.286  2.4325  0.4354  1.9038
  379SOL     OW 1135   1.459   0.167   1.297  0.2822 -0.0281  0.6790
  379SOL    HW1 1136   1.390   0.233   1.265  0.1751 -0.3602  0.2046
  379SOL    HW2 1137   1.422   0.074   1.288  0.9228 -0.2321  0.0839
  380SOL     OW 1138   0.005   1.364   2.302  0.0704  0.1550 -0.1145
  380SOL    HW1 1139   0.089   1.358   2.357  0.4590  1.6358 -0.4875
  380SOL    HW2 1140   0.020   1.319   2.214  0.4065  0.2194 -0.0940
  381SOL     OW 1141   1.223   0.203   1.666  0.1130 -0.0090 -0.4696
  381SOL    HW1 1142   1.180   0.180   1.754  1.2139  1.4749  0.4999
  381SOL    HW2 1143   1.272   0.123   1.631  0.9959 -0.1831  1.0852
  382SOL     OW 1144   0.482   0.462   0.243 -0.0430 -0.4952  0.3095
  382SOL    HW1 1145   0.522   0.525   0.310  1.3373 -0.5619 -0.4252
  382SOL    HW2 1146   0.534   0.466   0.158 -0.7492 -1.6572 -0.2005
  383SOL     OW 1147   1.981   1.522   0.678 -0.0592  0.3006  0.1366
  383SOL    HW1 1148   1.969   1.501   0.775 -1.1877  0.1523 -0.0260
  383SOL    HW2 1149   1.899   1.496   0.628  1.3716 -1.9029 -1.2579
  384SOL     OW 1150   1.904   2.012   1.860 -0.6004 -0.1263 -0.6266
  384SOL    HW1 1151   1.874   1.972   1.947  2.3422  1.4633  1.2575
  384SOL    HW2 1152   1.929   1.939   1.797  2.2871 -1.4297  1.8296
  385SOL     OW 1153   2.238   0.027   1.042  0.6180  0.5818  0.4600
  385SOL    HW1 1154   2.297   0.051   0.965  0.7289  1.1746  0.7222
  385SOL    HW2 1155   2.291   0.029   1.127  0.4270  0.2260  0.5899
  386SOL     OW 1156   0.650   1.538   0.934  0.2546 -0.2234  0.1362
  386SOL    HW1 1157   0.706   1.608   0.888 -0.7480  1.7048  1.6956
  386SOL    HW2 1158   0.700   1.501   1.011  0.2649 -0.2139  0.1343
  387SOL     OW 1159   1.416   2.183   1.460 -0.1340 -0.0323  0.1981
  387SOL    HW1 1160   1.392   2.194   1.556 -1.0621  2.7233 -0.2359
  387SOL    HW2 1161   1.515   2.195   1.449 -0.3143  2.4361  0.6004
  388SOL     OW 1162   2.467   0.502   1.361 -0.2813  0.5184  0.6911
  388SOL    HW1 1163   2.410   0.519   1.441  0.7684  0.7165  1.4149
  388SOL    HW2 1164   2.417   0.446   1.295 -1.1937  0.4486  1.4374
  389SOL     OW 1165   0.516   0.801   0.787  0.2210  0.1865 -0.2438
  389SOL    HW1 1166   0.518   0.839   0.695  0.7747  0.9538  0.0665
  389SOL    HW2 1167   0.509   0.876   0.853  0.5514 -0.3048  0.3578
  390SOL     OW 1168   2.263   0.098   1.968  0.2222  0.0536 -0.4604
  390SOL    HW1 1169   2.283   0.175   2.028 -0.5555  0.6921 -0.9998
  390SOL    HW2 1170   2.277   0.126   1.873  0.5930 -0.6817 -0.6282
  391SOL     OW 1171   1.542   1.741   1.117 -0.3008 -0.4496  0.1296
  391SOL    HW1 1172   1.462   1.696   1.078 -0.4249  1.1424 -1.5986
  391SOL    HW2 1173   1.589   1.794   1.046  0.6886  0.9212  1.7163
  392SOL     OW 1174   2.126   0.932   1.928  0.2724 -0.0603  0.0021
  392SOL    HW1 1175   2.152   0.836   1.929  0.5297  0.0030  1.2380
  392SOL    HW2 1176   2.036   0.942   1.968  0.7003  0.3243  0.8847
  393SOL     OW 1177   1.116   0.666   1.941 -0.3711  0.0651  0.1921
  393SOL    HW1 1178   1.166   0.752   1.932 -0.1729 -0.1366 -0.7341
  393SOL    HW2 1179   1.154   0.599   1.877 -1.1288 -0.4239  0.2489
  394SOL     OW 1180   1.055   1.304   2.089 -0.4339  0.6480  0.0486
  394SOL    HW1 1181   1.151   1.329   2.098 -0.1478 -0.1144 -0.7877
  394SOL    HW2 1182   1.046   1.227   2.026 -1.5742  0.5746  0.2799
  395SOL     OW 1183   0.922   2.271   1.450  0.0309 -0.4626 -0.4327
  395SOL    HW1 1184   0.937   2.172   1.461  1.9054 -0.2765 -1.0392
  395SOL    HW2 1185   0.947   2.318   1.535  0.8152 -0.3748 -0.6973
  396SOL     OW 1186   0.210   2.336   2.001 -0.3211 -0.1355  0.4257
  396SOL    HW1 1187   0.157   2.256   1.970  0.2700 -0.4660  0.2584
  396SOL    HW2 1188   0.298   2.306   2.037  1.4142  0.6046 -2.7507
  397SOL     OW 1189   2.452   1.414   1.300  0.2335  0.3644  0.3615
  397SOL    HW1 1190   2.376   1.434   1.362 -0.2885  0.5899 -0.3380
  397SOL    HW2 1191   2.428   1.444   1.208  0.7536 -0.5206 -0.0753
  398SOL     OW 1192   1.723   1.545   1.192 -0.0095  0.1500  0.0588
  398SOL    HW1 1193   1.667   1.505   1.266 -1.4787 -0.0384 -1.1025
  398SOL    HW2 1194   1.671   1.616   1.146  0.6651 -0.1089 -1.1426
  399SOL     OW 1195   1.369   2.383   1.304  0.0288  0.4360  0.1264
  399SOL    HW1 1196   1.281   2.366   1.261 -0.6241 -0.3792  1.7246
  399SOL    HW2 1197   1.384   2.318   1.378  2.0429  0.4735 -0.1704
  400SOL     OW 1198   2.099   2.197   2.126 -0.3356 -0.2066  0.0511
  400SOL    HW1 1199   2.016   2.180   2.180  0.2081  1.1430  1.3844
  400SOL    HW2 1200   2.079   2.264   2.054 -0.5035 -0.1658  0.1351
  401SOL     OW 1201   0.227   2.434   1.196 -0.6534  0.1137  0.1312
  401SOL    HW1 1202   0.322   2.466   1.191  0.2872 -2.1343  1.9344
  401SOL    HW2 1203   0.195   2.412   1.104  0.9477 -0.0839 -0.4247
  402SOL     OW 1204   1.940   1.392   0.932 -0.4210 -0.6612 -0.0324
  402SOL    HW1 1205   1.945   1.403   1.031 -0.6925 -0.0923 -0.0779
  402SOL    HW2 1206   1.847   1.365   0.906 -0.3484 -0.8181 -0.1277
  403SOL     OW 1207   2.083   1.200   0.494  0.0376  0.7154  0.4461
  403SOL    HW1 1208   2.096   1.166   0.588  0.3706  1.1715  0.5669
  403SOL    HW2 1209   1.986   1.217   0.478  0.0413  1.2252  0.9186
  404SOL     OW 1210   0.484   0.489   2.157  0.0326 -0.1794 -0.5020
  404SOL    HW1 1211   0.462   0.585   2.138  0.0358  0.1755  1.1765
  404SOL    HW2 1212   0.413   0.449   2.214  0.5056 -0.9038 -0.4118
  405SOL     OW 1213   0.545   0.041   1.172  0.2335  0.3457 -0.8014
  405SOL    HW1 1214   0.565   0.134   1.201 -1.9381  0.8898 -0.8578
  405SOL    HW2 1215   0.615  -0.021   1.208  0.6231  1.7213  0.9626
  406SOL     OW 1216   0.812   0.290   0.234 -0.2581 -0.2293 -0.1217
  406SOL    HW1 1217   0.753   0.352   0.184 -1.4536 -0.9844  0.3051
  406SOL    HW2 1218   0.792   0.296   0.332  0.9878  0.1319  0.1238
  407SOL     OW 1219   1.592   2.124   0.758 -0.1596  0.4649  0.6141
  407SOL    HW1 1220   1.683   2.165   0.750 -0.3783  0.8719  0.1528
  407SOL    HW2 1221   1.578   2.094   0.852  0.8899 -0.6641  0.4371
  408SOL     OW 1222   1.866   1.046   1.744  0.4216 -0.2484  0.6077
  408SOL    HW1 1223   1.811   1.000   1.813  1.7738 -2.6131  0.2447
  408SOL    HW2 1224   1.926   1.113   1.787  0.2306 -0.6673  1.5437
  409SOL     OW 1225   2.162   2.264   2.462 -0.2684  0.2940  0.2695
  409SOL    HW1 1226   2.067   2.238   2.480  0.4568 -2.2915  0.7783
  409SOL    HW2 1227   2.164   2.348   2.408 -2.8414  0.1121 -0.2388
  410SOL     OW 1228   0.747   0.311   0.484 -0.4148  0.0666 -0.6024
  410SOL    HW1 1229   0.809   0.317   0.561 -1.1833  1.5182 -0.0559
  410SOL    HW2 1230   0.674   0.246   0.504 -0.0245 -0.3626 -0.5598
  411SOL     OW 1231   1.025   2.111   0.106  0.0135  0.5352 -0.2728
  411SOL    HW1 1232   1.049   2.110   0.203 -0.3131  0.6210 -0.1900
  411SOL    HW2 1233   1.037   2.204   0.070 -0.6546  0.6909 -0.1116
  412SOL     OW 1234   1.939   0.812   0.838 -0.1912 -0.2330  0.1147
  412SOL    HW1 1235   1.839   0.802   0.830 -0.1461  0.1847 -1.1573
  412SOL    HW2 1236   1.960   0.888   0.899 -0.6480 -0.4539  0.5550
  413SOL     OW 1237   0.158   0.605   0.400 -0.5431 -0.2786 -0.5038
  413SOL    HW1 1238   0.058   0.607   0.392 -0.4688  2.4187 -2.0709
  413SOL    HW2 1239   0.198   0.644   0.317  1.9089 -2.4208 -0.4400
  414SOL     OW 1240   2.448   0.673   1.074  0.3311 -0.1180  0.1932
  414SOL    HW1 1241   2.537   0.639   1.104  1.8309  3.1449 -0.1016
  414SOL    HW2 1242   2.458   0.718   0.985 -1.4564  0.9132  0.4576
  415SOL     OW 1243   0.063   1.731   1.191  0.1550 -0.1546  0.1978
  415SOL    HW1 1244   0.043   1.641   1.153  1.8937 -0.4903  0.0225
  415SOL    HW2 1245   0.050   1.800   1.119  0.2938 -0.4275 -0.0939
  416SOL     OW 1246   0.615   0.894   1.558 -0.1670 -0.4056 -0.1065
  416SOL    HW1 1247   0.536   0.869   1.613 -1.3343 -0.2131 -1.6114
  416SOL    HW2 1248   0.622   0.994   1.553 -0.4628 -0.4127 -0.8062
  417SOL     OW 1249   0.800   0.553   0.115  0.3999 -0.4863 -0.0092
  417SOL    HW1 1250   0.894   0.540   0.084  0.5974 -0.9753  0.7528
  417SOL    HW2 1251   0.799   0.613   0.195 -0.1926  1.5439 -1.4642
  418SOL     OW 1252   1.340   1.360   1.423  0.2536 -0.2018  0.1784
  418SOL    HW1 1253   1.265   1.311   1.378  0.5397  0.3450 -0.9276
  418SOL    HW2 1254   1.304   1.443   1.466 -0.0518 -0.8175  1.1254
  419SOL     OW 1255   1.649   0.252   2.370 -0.4303  0.1677 -0.2088
  419SOL    HW1 1256   1.688   0.327   2.318 -1.7335  0.4851 -0.7480
  419SOL    HW2 1257   1.667   0.166   2.322  0.3827  0.1961  0.0185
  420SOL     OW 1258   1.238   1.071   1.047 -0.2373 -0.0411  0.1526
  420SOL    HW1 1259   1.253   1.136   0.973 -0.0976  1.3524  1.3696
  420SOL    HW2 1260   1.233   1.120   1.134  0.2559 -1.7102  1.1524
  421SOL     OW 1261   2.372   0.551   0.359  0.2786 -0.3334 -0.0027
  421SOL    HW1 1262   2.340   0.549   0.264  1.5550 -0.0392 -0.4671
  421SOL    HW2 1263   2.308   0.603   0.415  0.7820  1.7118 -1.2247
  422SOL     OW 1264   1.703   1.904   2.301  0.2228  0.4332 -0.5007
  422SOL    HW1 1265   1.648   1.980   2.335  2.3339  1.6224  0.4967
  422SOL    HW2 1266   1.780   1.889   2.363 -1.1250 -3.8795  0.4691
  423SOL     OW 1267   2.221   0.596   1.590 -0.3789  0.4836 -0.2951
  423SOL    HW1 1268   2.158   0.569   1.518  1.4446  1.6904 -2.4613
  423SOL    HW2 1269   2.235   0.695   1.587  0.1498  0.4952  1.3960
  424SOL     OW 1270   0.138   1.632   1.787 -0.6108 -0.7345 -0.4933
  424SOL    HW1 1271   0.234   1.609   1.768  0.0045  0.4297  0.9931
  424SOL    HW2 1272   0.081   1.552   1.769  0.9853 -2.3468  1.0908
  425SOL     OW 1273   1.026   1.604   1.880 -0.4074 -0.4211 -0.7598
  425SOL    HW1 1274   0.935   1.583   1.915  0.4219 -1.6641  0.7342
  425SOL    HW2 1275   1.080   1.521   1.874  1.1606  0.5090 -0.0846
  426SOL     OW 1276   1.646   0.089   0.716  0.9188 -0.5903  0.2877
  426SOL    HW1 1277   1.727   0.061   0.767  1.0993  2.3484  1.8150
  426SOL    HW2 1278   1.572   0.023   0.732  2.0491 -1.6496  1.3820
  427SOL     OW 1279   1.948   1.370   1.212  0.0319 -0.2334 -1.1428
  427SOL    HW1 1280   1.874   1.427   1.247  0.6223  0.2312 -0.6169
  427SOL    HW2 1281   1.933   1.275   1.240 -0.0137 -0.0287 -0.4681
  428SOL     OW 1282   0.662   1.611   1.519  0.6217  0.0430  0.0307
  428SOL    HW1 1283   0.643   1.526   1.569 -0.9475  0.9859  1.1498
  428SOL    HW2 1284   0.622   1.606   1.428 -0.4354 -0.0251  0.4865
  429SOL     OW 1285   1.453   1.335   1.159 -0.3926  0.4457  0.3559
  429SOL    HW1 1286   1.370   1.347   1.106 -0.0803 -0.4938 -0.3797
  429SOL    HW2 1287   1.436   1.362   1.254 -1.7053 -0.2292  0.3446
  430SOL     OW 1288   1.516   1.003   0.046  0.4200  0.0819  0.2771
  430SOL    HW1 1289   1.543   1.012  -0.050  0.3881 -0.4027  0.2201
  430SOL    HW2 1290   1.430   0.953   0.052  1.1236 -1.1304  0.6283
  431SOL     OW 1291   1.903   1.917   0.025  0.3195 -0.2073  0.4526
  431SOL    HW1 1292   1.994   1.893  -0.010  0.2206  0.1990 -0.0933
  431SOL    HW2 1293   1.892   2.017   0.025 -1.5682 -0.2444 -3.3477
  432SOL     OW 1294   2.354   0.960   1.778  0.1804 -0.1902 -0.1190
  432SOL    HW1 1295   2.277   0.938   1.838  0.5252  1.7309  1.1219
  432SOL    HW2 1296   2.403   0.876   1.753 -1.3800 -1.2749  0.3191
  433SOL     OW 1297   1.901   0.090   0.866 -0.1145  0.2332  0.4004
  433SOL    HW1 1298   1.861   0.050   0.949 -1.3941  1.7821  0.5791
  433SOL    HW2 1299   1.969   0.158   0.891 -1.1849  1.3956  0.2356
  434SOL     OW 1300   0.106   1.157   2.127  0.4619 -0.0068 -0.3784
  434SOL    HW1 1301   0.192   1.114   2.100  1.0528  0.0227  1.3244
  434SOL    HW2 1302   0.069   1.208   2.050  0.8960 -1.6888 -1.7673
  435SOL     OW 1303   0.176   1.794   1.424  0.4490 -0.1109  0.7792
  435SOL    HW1 1304   0.101   1.801   1.489 -1.0858  0.3834 -0.9750
  435SOL    HW2 1305   0.140   1.777   1.333  2.3461  1.6311 -0.3940
  436SOL     OW 1306   0.256   1.062   1.484 -0.4347 -0.2379  0.4838
  436SOL    HW1 1307   0.186   1.081   1.553 -1.2425  0.2128 -0.4230
  436SOL    HW2 1308   0.229   1.105   1.397 -0.2237 -2.0541 -0.5300
  437SOL     OW 1309   1.657   1.461   0.343 -0.1530  0.2156 -0.4119
  437SOL    HW1 1310   1.659   1.510   0.255  0.7470  1.8647  0.4810
  437SOL    HW2 1311   1.589   1.388   0.338 -1.2270  1.2396 -1.9838
  438SOL     OW 1312   0.786   2.213   1.777  0.4730  0.0786 -0.1052
  438SOL    HW1 1313   0.763   2.130   1.727  1.5372 -0.3342  0.0516
  438SOL    HW2 1314   0.704   2.267   1.792 -0.0058 -0.2099 -1.5201
  439SOL     OW 1315   0.995   2.310   2.198 -0.0766 -0.2648  0.1392
  439SOL    HW1 1316   0.922   2.365   2.158  0.0746  0.0998  0.3613
  439SOL    HW2 1317   1.069   2.299   2.131  0.0493  0.0991  0.2201
  440SOL     OW 1318   2.184   0.871   1.543  0.1098  0.3343  0.4573
  440SOL    HW1 1319   2.209   0.953   1.594 -2.4649  1.0930  0.6203
  440SOL    HW2 1320   2.119   0.894   1.472 -1.4596 -1.6699  1.1396
  441SOL     OW 1321   1.157   0.554   0.568 -0.1893  0.8834  0.1544
  441SOL    HW1 1322   1.103   0.622   0.618 -0.3260  0.0349  1.1981
  441SOL    HW2 1323   1.241   0.597   0.534 -0.0117  1.4583  1.2721
  442SOL     OW 1324   1.737   2.358   2.460 -0.8307 -0.1901 -0.6629
  442SOL    HW1 1325   1.697   2.373   2.550  0.6946  1.8674 -0.2499
  442SOL    HW2 1326   1.696   2.421   2.395 -1.4828 -1.2463 -1.3070
  443SOL     OW 1327   0.320   0.780   1.147 -0.1984 -0.1802 -0.1899
  443SOL    HW1 1328   0.413   0.807   1.169  0.3487 -1.3025 -0.9972
  443SOL    HW2 1329   0.258   0.857   1.160  0.7650  0.4546  0.7816
  444SOL     OW 1330   2.134   0.030   1.391 -0.3838  0.2096 -0.4858
  444SOL    HW1 1331   2.191   0.100   1.434  0.0700  0.4878 -1.5166
  444SOL    HW2 1332   2.116   0.055   1.296 -0.7216 -0.7695 -0.6917
  445SOL     OW 1333   0.691   0.120   1.908 -0.1970  0.1446  0.8076
  445SOL    HW1 1334   0.646   0.177   1.977 -2.6096  0.3224 -0.8174
  445SOL    HW2 1335   0.744   0.179   1.847 -0.5128  0.3429  0.7209
  446SOL     OW 1336   0.578   2.099   1.619  0.3276 -0.0957  0.0484
  446SOL    HW1 1337   0.628   2.063   1.541  0.2715 -2.0222  0.8597
  446SOL    HW2 1338   0.491   2.050   1.629 -0.1706  0.8745  0.6862
  447SOL     OW 1339   1.927   0.489   0.099  0.6179 -0.3718 -0.2853
  447SOL    HW1 1340   1.900   0.394   0.079  1.1188  0.0506 -3.5678
  447SOL    HW2 1341   2.022   0.503   0.069  0.0241  1.5652 -1.3627
  448SOL     OW 1342   1.964   0.330   0.506 -0.8878  0.0285 -0.0739
  448SOL    HW1 1343   2.015   0.271   0.568  0.2436  1.1333  0.1057
  448SOL    HW2 1344   1.962   0.290   0.414  1.9405  0.7746 -0.5393
  449SOL     OW 1345   0.246   0.455   1.362  0.4131 -0.8045  0.4196
  449SOL    HW1 1346   0.259   0.424   1.456 -1.4665  0.0264  0.9885
  449SOL    HW2 1347   0.151   0.481   1.348  0.6822 -0.8068 -1.7027
  450SOL     OW 1348   0.511   2.398   1.539 -0.0497  0.3008  0.1254
  450SOL    HW1 1349   0.493   2.323   1.602  2.4964  0.4385  1.1395
  450SOL    HW2 1350   0.544   2.362   1.452  1.4869  0.1866  0.7219
  451SOL     OW 1351   1.259   1.964   2.458  0.1733 -0.1518  0.1024
  451SOL    HW1 1352   1.249   1.986   2.361 -1.4454 -1.3138 -0.0364
  451SOL    HW2 1353   1.198   2.024   2.511  0.0521 -0.4142  0.2610
  452SOL     OW 1354   1.584   2.139   2.353  0.2483  0.5154 -0.1072
  452SOL    HW1 1355   1.492   2.133   2.316  1.0051 -0.8384 -1.9266
  452SOL    HW2 1356   1.588   2.212   2.421 -1.9817  1.0159 -0.4372
  453SOL     OW 1357   0.939   1.586   1.622 -0.1897  0.9419  0.3158
  453SOL    HW1 1358   0.955   1.601   1.719 -1.2327  0.9669  0.5001
  453SOL    HW2 1359   0.842   1.600   1.602 -0.1089  0.2882 -0.6033
  454SOL     OW 1360   0.872   1.551   0.148  0.0584 -0.0739  0.3412
  454SOL    HW1 1361   0.855   1.458   0.117  1.5621  0.0472 -0.9609
  454SOL    HW2 1362   0.791   1.586   0.195 -1.1272 -1.4433 -0.6114
  455SOL     OW 1363   1.015   1.292   1.104  0.3222 -0.2016 -0.2660
  455SOL    HW1 1364   1.093   1.324   1.050 -0.1631 -1.3578 -1.7229
  455SOL    HW2 1365   0.939   1.356   1.093  0.4869 -0.0061 -0.2849
  456SOL     OW 1366   0.219   1.016   1.881  0.6342 -0.8287 -0.9093
  456SOL    HW1 1367   0.148   1.059   1.825 -0.7772 -2.0176 -0.1029
  456SOL    HW2 1368   0.286   1.085   1.908 -1.0068  0.6761 -0.4588
  457SOL     OW 1369   1.330   0.251   1.981  0.3075  0.1134  0.6252
  457SOL    HW1 1370   1.371   0.332   2.024  0.7956  0.2411 -0.0695
  457SOL    HW2 1371   1.230   0.259   1.984  0.3495  0.7805  0.4990
  458SOL     OW 1372   2.073   2.154   0.662 -0.2580 -0.1341 -0.1393
  458SOL    HW1 1373   2.003   2.100   0.615 -1.5485  0.5557  0.9420
  458SOL    HW2 1374   2.163   2.125   0.630 -1.0009 -1.2185 -1.3829
  459SOL     OW 1375   1.731   0.624   0.216  0.6071 -0.1078  0.4952
  459SOL    HW1 1376   1.800   0.589   0.154 -0.0395 -1.1316  0.3252
  459SOL    HW2 1377   1.718   0.560   0.292 -1.7448 -1.1240 -0.6527
  460SOL     OW 1378   1.746   0.231   1.951  0.2375  0.3531 -0.1865
  460SOL    HW1 1379   1.774   0.223   2.046  0.7976 -4.4174 -0.5270
  460SOL    HW2 1380   1.824   0.261   1.896  1.0947 -0.6591  0.4332
  461SOL     OW 1381   0.810   1.173   2.215  0.6441  0.7317 -0.1972
  461SOL    HW1 1382   0.792   1.090   2.163  1.2331  0.7494 -0.4417
  461SOL    HW2 1383   0.903   1.206   2.194  1.2020  0.2968  1.4616
  462SOL     OW 1384   1.732   1.339   2.163 -0.2153 -0.0989  0.4350
  462SOL    HW1 1385   1.787   1.258   2.184  0.6718  0.6106  0.9327
  462SOL    HW2 1386   1.666   1.317   2.091  0.7250 -0.9890 -0.1918
  463SOL     OW 1387   2.196   1.093   1.336  0.1199  0.0683 -0.2237
  463SOL    HW1 1388   2.100   1.076   1.315  0.1755 -1.7006  0.7381
  463SOL    HW2 1389   2.254   1.036   1.277  0.5262  0.2722 -0.0257
  464SOL     OW 1390   1.070   0.898   0.949  0.3306 -0.1022  0.0841
  464SOL    HW1 1391   0.991   0.946   0.911  1.1040  0.0650 -1.3960
  464SOL    HW2 1392   1.122   0.959   1.008 -0.5630 -0.1794  0.9747
  465SOL     OW 1393   1.308   2.195   1.729 -0.4831  0.1107 -0.1232
  465SOL    HW1 1394   1.209   2.204   1.730 -0.5161 -0.0257 -1.2813
  465SOL    HW2 1395   1.350   2.284   1.715 -0.4143  0.2431  0.8525
  466SOL     OW 1396   0.380   0.797   1.724  0.1449  0.0175  0.1788
  466SOL    HW1 1397   0.335   0.783   1.636  0.1221 -1.4290  0.3879
  466SOL    HW2 1398   0.333   0.869   1.775 -0.9050 -0.3105 -0.2975
  467SOL     OW 1399   0.507   1.763   0.056 -0.3513 -0.7538 -0.0736
  467SOL    HW1 1400   0.471   1.762  -0.038  0.0442 -1.1456 -0.2254
  467SOL    HW2 1401   0.468   1.840   0.106 -0.1816 -0.2468 -0.7154
  468SOL     OW 1402   2.065   0.849   0.609  0.0254  0.0448  0.0821
  468SOL    HW1 1403   2.024   0.834   0.699  0.7107  1.5129  0.6579
  468SOL    HW2 1404   1.993   0.849   0.539 -0.4070 -2.2081  0.4362
  469SOL     OW 1405   2.174   1.878   0.370  0.2060 -0.8155  0.1867
  469SOL    HW1 1406   2.265   1.866   0.410  0.2098 -2.5849 -0.2774
  469SOL    HW2 1407   2.145   1.794   0.326 -1.6636 -0.2806  0.2792
  470SOL     OW 1408   1.991   1.336   1.779 -0.8724 -0.0131 -0.0408
  470SOL    HW1 1409   2.035   1.417   1.818  3.0821 -1.4002 -1.1760
  470SOL    HW2 1410   1.907   1.363   1.732  0.4997  3.4869 -0.7554
  471SOL     OW 1411   1.664   0.930   1.876 -0.1788  0.5191  0.3381
  471SOL    HW1 1412   1.581   0.975   1.908 -1.6149 -1.8755  0.1541
  471SOL    HW2 1413   1.642   0.868   1.801  1.8833  0.2174 -0.0802
  472SOL     OW 1414   2.373   1.748   0.498  0.1568 -0.1877  0.0262
  472SOL    HW1 1415   2.343   1.700   0.581 -0.6898  0.4349  0.0997
  472SOL    HW2 1416   2.396   1.682   0.427 -0.4942 -0.7074  0.2932
  473SOL     OW 1417   2.028   0.196   0.264 -0.4131 -0.0443  0.0643
  473SOL    HW1 1418   1.993   0.197   0.170 -1.8526  1.9565  0.5558
  473SOL    HW2 1419   2.030   0.102   0.298 -1.2960 -0.6410 -1.4470
  474SOL     OW 1420   1.052   2.245   1.806  0.0558  0.5253 -0.0763
  474SOL    HW1 1421   0.953   2.252   1.795 -0.2689  0.5068  2.2962
  474SOL    HW2 1422   1.073   2.188   1.886  1.9987  0.5113 -0.5286
  475SOL     OW 1423   2.343   0.942   1.190  0.2336 -0.0765  0.3364
  475SOL    HW1 1424   2.328   0.845   1.208 -0.1448 -0.0021  0.4227
  475SOL    HW2 1425   2.338   0.959   1.091 -1.2940  0.1088  0.4136
  476SOL     OW 1426   0.082   1.260   0.223 -0.0149  0.6090  0.5712
  476SOL    HW1 1427   0.147   1.230   0.293 -0.2520  1.5480  1.2144
  476SOL    HW2 1428   0.130   1.278   0.137  0.2948 -0.4510  0.5195
  477SOL     OW 1429   1.662   0.820   0.850 -0.2610 -0.0962  0.7084
  477SOL    HW1 1430   1.597   0.896   0.859  0.6946  0.7500  0.5534
  477SOL    HW2 1431   1.657   0.763   0.932 -0.6046  0.4287  1.0626
  478SOL     OW 1432   0.227   0.529   1.106  0.3258  0.0627  0.3546
  478SOL    HW1 1433   0.246   0.484   1.193 -1.6232  0.1937  0.9114
  478SOL    HW2 1434   0.271   0.619   1.105  2.6129 -0.9942  0.0389
  479SOL     OW 1435   0.124   2.217   0.045  0.0831 -0.1664 -0.2965
  479SOL    HW1 1436   0.206   2.168   0.018  0.4141 -0.3868  1.0079
  479SOL    HW2 1437   0.044   2.157   0.034  0.0477  0.1222 -1.7684
  480SOL     OW 1438   0.287   0.757   0.582 -0.0007  0.1637 -0.0073
  480SOL    HW1 1439   0.242   0.710   0.506 -0.3614  0.4687  0.0141
  480SOL    HW2 1440   0.263   0.712   0.668 -1.0149  0.8835  0.0935
  481SOL     OW 1441   0.172   0.366   0.045 -0.0643  0.3043 -0.0019
  481SOL    HW1 1442   0.106   0.295   0.071 -1.0451  0.8221 -0.9503
  481SOL    HW2 1443   0.263   0.341   0.078 -0.5862 -0.8301  0.6537
  482SOL     OW 1444   1.071   0.011   0.445  0.4242 -0.5016 -0.3249
  482SOL    HW1 1445   1.153  -0.046   0.450 -0.9639 -2.7194 -1.4225
  482SOL    HW2 1446   1.085   0.083   0.378  1.5053 -0.7811 -0.4191
  483SOL     OW 1447   2.100   1.609   0.991 -0.2168  0.5972 -0.1220
  483SOL    HW1 1448   2.034   1.645   1.057 -0.2596  2.0235 -0.9244
  483SOL    HW2 1449   2.070   1.518   0.961 -1.7419  1.1630 -0.3759
  484SOL     OW 1450   1.857   0.691   2.347  0.6070  0.2922  0.3162
  484SOL    HW1 1451   1.949   0.682   2.385  1.8226 -0.2218 -2.5147
  484SOL    HW2 1452   1.806   0.760   2.399  3.0777  1.6801  1.0532
  485SOL     OW 1453   0.269   2.133   0.660  0.2423  0.0282  0.0991
  485SOL    HW1 1454   0.204   2.209   0.656 -1.4405 -1.3782 -0.3092
  485SOL    HW2 1455   0.228   2.051   0.619  1.0846 -1.7748  2.5957
  486SOL     OW 1456   2.210   2.249   1.063 -0.0946 -0.3546  0.4922
  486SOL    HW1 1457   2.206   2.220   1.159  1.1558  2.8265  1.6441
  486SOL    HW2 1458   2.209   2.349   1.058 -2.9652 -0.3619 -3.0332
  487SOL     OW 1459   1.182   1.820   1.916  0.3087  0.1140  0.2227
  487SOL    HW1 1460   1.211   1.829   2.011  0.9282 -2.2385  0.3115
  487SOL    HW2 1461   1.134   1.734   1.903 -2.6004  1.7743 -0.9847
  488SOL     OW 1462   2.311   2.043   0.609 -0.1087  0.1468 -0.0116
  488SOL    HW1 1463   2.384   2.084   0.555 -0.1916  1.6495  0.9725
  488SOL    HW2 1464   2.261   1.977   0.552 -0.0375  1.4763 -1.7157
  489SOL     OW 1465   0.981   1.649   2.264 -0.4606 -0.2071  0.4875
  489SOL    HW1 1466   1.064   1.666   2.318 -0.3846 -1.2129  0.7067
  489SOL    HW2 1467   0.901   1.651   2.323 -0.4070 -1.0008  0.6050
  490SOL     OW 1468   1.598   2.099   1.024 -0.4698 -0.1964 -0.2550
  490SOL    HW1 1469   1.563   2.186   1.058 -0.7476  0.7146 -2.6675
  490SOL    HW2 1470   1.692   2.086   1.057 -0.4242  1.0085  0.1642
  491SOL     OW 1471   0.148   2.329   0.971 -0.2609  0.3953 -0.0585
  491SOL    HW1 1472   0.157   2.399   0.900 -0.6684  0.8835  0.3668
  491SOL    HW2 1473   0.110   2.245   0.931  0.1013  0.4577 -0.5402
  492SOL     OW 1474   0.863   1.065   0.852  0.0894  0.3909  0.1789
  492SOL    HW1 1475   0.777   1.073   0.803  0.9104 -2.3199 -1.9575
  492SOL    HW2 1476   0.937   1.103   0.797  0.5837  0.4269  0.8512
  493SOL     OW 1477   1.188   0.365   2.285  0.0840  0.1213 -0.0258
  493SOL    HW1 1478   1.224   0.458   2.290  0.8214 -0.1350 -0.4929
  493SOL    HW2 1479   1.224   0.311   2.362 -0.0203  0.1070  0.0136
  494SOL     OW 1480   0.262   2.032   2.110  0.1265 -0.0500 -0.0199
  494SOL    HW1 1481   0.286   1.942   2.074 -0.3758 -0.6092  1.0059
  494SOL    HW2 1482   0.343   2.074   2.151 -0.2970 -1.4938  2.5033
  495SOL     OW 1483   1.733   0.138   0.435  0.5555 -0.0702  0.3090
  495SOL    HW1 1484   1.732   0.238   0.436 -0.6718 -0.0685  0.6870
  495SOL    HW2 1485   1.684   0.103   0.515  0.0539 -0.9627 -0.3625
  496SOL     OW 1486   0.140   1.441   0.552 -0.1365 -0.4964 -0.0262
  496SOL    HW1 1487   0.223   1.440   0.495  0.5153 -0.6356  0.9080
  496SOL    HW2 1488   0.080   1.367   0.524  0.6071 -1.1554  0.0737
  497SOL     OW 1489   2.379   0.200   0.854  0.0387 -0.1210 -0.3031
  497SOL    HW1 1490   2.456   0.170   0.799  0.9068 -0.5224  1.0794
  497SOL    HW2 1491   2.404   0.284   0.903 -1.9283  2.3553 -3.1790
  498SOL     OW 1492   1.026   1.710   0.579  0.3022  0.4435  0.2450
  498SOL    HW1 1493   1.097   1.742   0.642 -2.8268  0.6763  4.0082
  498SOL    HW2 1494   0.976   1.789   0.543  0.5749  0.1941 -0.7104
  499SOL     OW 1495   2.462   1.657   2.296  0.1020  0.3923 -0.4937
  499SOL    HW1 1496   2.421   1.694   2.380  0.3547  0.4126 -0.3791
  499SOL    HW2 1497   2.489   1.562   2.311 -0.2114  0.2725 -0.6753
  500SOL     OW 1498   2.364   0.837   0.303 -0.2151  0.5487  0.9078
  500SOL    HW1 1499   2.302   0.915   0.299 -0.5827  0.2769  1.2290
  500SOL    HW2 1500   2.313   0.752   0.290 -0.2261  0.1903  2.8795
  501SOL     OW 1501   0.587   0.496   2.448 -0.2964  0.7933  0.2236
  501SOL    HW1 1502   0.583   0.546   2.361 -0.8484 -0.1022 -0.2850
  501SOL    HW2 1503   0.667   0.526   2.500 -0.9288  2.6221  0.2144
  502SOL     OW 1504   0.510   1.321   0.840  0.0280 -0.3756  0.1674
  502SOL    HW1 1505   0.558   1.405   0.862  0.7061 -0.6816 -0.1055
  502SOL    HW2 1506   0.489   1.319   0.742  1.4636 -1.2257 -0.1581
  503SOL     OW 1507   1.592   1.217   0.183  0.1359 -0.8922  0.4575
  503SOL    HW1 1508   1.573   1.142   0.119 -0.5826  0.1232 -0.5411
  503SOL    HW2 1509   1.686   1.249   0.170 -0.1623 -0.3541 -0.4653
  504SOL     OW 1510   1.824   0.507   1.654 -0.4431 -0.4377 -0.4515
  504SOL    HW1 1511   1.841   0.605   1.642  0.5576 -0.6079 -0.4982
  504SOL    HW2 1512   1.830   0.461   1.566 -1.5383 -0.4619 -0.5265
  505SOL     OW 1513   0.950   1.288   1.537  0.1226 -0.2609 -0.6197
  505SOL    HW1 1514   0.955   1.384   1.564  1.5628 -0.5261  0.1377
  505SOL    HW2 1515   0.855   1.264   1.515 -0.3175  1.2079 -0.3959
  506SOL     OW 1516   0.225   2.077   0.331 -0.0482 -0.2136 -0.0603
  506SOL    HW1 1517   0.208   2.010   0.403 -0.6980 -1.4507 -1.2982
  506SOL    HW2 1518   0.172   2.160   0.349  2.0572  0.7223  2.3779
  507SOL     OW 1519   0.730   0.139   1.519 -0.0133 -0.2815 -0.5533
  507SOL    HW1 1520   0.670   0.061   1.507 -0.3966 -0.3674  1.4964
  507SOL    HW2 1521   0.792   0.146   1.441 -1.0129 -1.6653 -1.5219
  508SOL     OW 1522   0.201   1.839   0.175  1.2594 -0.2271  0.3173
  508SOL    HW1 1523   0.214   1.847   0.077 -2.5141 -0.1690 -0.3104
  508SOL    HW2 1524   0.229   1.923   0.220  1.0982  0.5326 -0.9660
  509SOL     OW 1525   2.099   1.370   0.209  0.2764  0.1664 -0.0027
  509SOL    HW1 1526   2.166   1.298   0.189 -1.0884 -0.8829 -1.0003
  509SOL    HW2 1527   2.093   1.383   0.308  0.9163 -0.7494  0.1716
  510SOL     OW 1528   1.919   1.718   1.169 -0.2774  0.5436 -0.0023
  510SOL    HW1 1529   1.933   1.752   1.262 -0.5932  1.1619 -0.1682
  510SOL    HW2 1530   1.846   1.650   1.169 -0.3299  0.5988  0.1966
   2.48207   2.48207   2.48207
