SPC/E water — SIM-01 equilibrium validation
 1530
    1SOL     OW    1   0.123   0.692   0.149  0.1186 -0.1619 -0.1212
    1SOL    HW1    2   0.123   0.791   0.133 -0.3206 -0.0063  0.7823
    1SOL    HW2    3   0.187   0.648   0.086  0.9113  0.7908 -0.0056
    2SOL     OW    4   1.756   0.140   0.644 -0.4510 -0.4233  0.4096
    2SOL    HW1    5   1.784   0.225   0.599 -0.0652 -0.7707 -0.0127
    2SOL    HW2    6   1.658   0.143   0.661 -0.7721 -0.6702 -1.2939
    3SOL     OW    7   0.298   0.956   0.082  0.0939 -0.1739 -0.1303
    3SOL    HW1    8   0.313   1.018   0.159  1.5467  0.1809 -0.6550
    3SOL    HW2    9   0.372   0.889   0.078  0.8911  0.7430 -2.0639
    4SOL     OW   10   1.041   1.282   1.447  0.3231  0.1939 -0.4890
    4SOL    HW1   11   0.942   1.285   1.436  0.2598 -2.6419 -1.2870
    4SOL    HW2   12   1.085   1.302   1.360  0.3911 -0.4368 -0.6029
    5SOL     OW   13   2.058   1.243   0.415  0.2356 -0.1302 -0.1887
    5SOL    HW1   14   2.157   1.259   0.423  0.1490  1.1308 -1.3931
    5SOL    HW2   15   2.041   1.168   0.353  0.4102  0.9453 -1.5829
    6SOL     OW   16   1.770   0.661   0.359 -0.2701 -0.3043  0.3274
    6SOL    HW1   17   1.833   0.688   0.286 -1.2365  0.4828 -0.2506
    6SOL    HW2   18   1.785   0.717   0.440 -1.1041  0.8473 -0.2771
    7SOL     OW   19   1.437   0.170   0.602 -0.5137  0.0467 -0.2616
    7SOL    HW1   20   1.428   0.246   0.538  1.2547  0.3319 -0.2183
    7SOL    HW2   21   1.363   0.173   0.669 -0.8070  1.3676 -0.6316
    8SOL     OW   22   2.399   1.744   0.177  0.0647 -0.4326 -0.0094
    8SOL    HW1   23   2.371   1.793   0.094  0.5420 -1.3557 -0.7434
    8SOL    HW2   24   2.324   1.687   0.209  0.5612 -1.7581 -1.1073
    9SOL     OW   25   2.487   1.022   0.643  0.1645 -0.6428 -0.1044
    9SOL    HW1   26   2.417   1.033   0.573  0.6884 -0.9344 -0.6818
    9SOL    HW2   27   2.571   1.068   0.615 -0.0056  0.3396  0.9176
   10SOL     OW   28   2.335   1.918   0.899  0.0781 -0.4023  0.3273
   10SOL    HW1   29   2.313   2.012   0.872 -1.3474 -0.7486  0.1666
   10SOL    HW2   30   2.408   1.919   0.966  1.2919  0.7079 -0.9316
   11SOL     OW   31   0.473   0.328   2.405  0.2606 -0.2138  0.7872
   11SOL    HW1   32   0.545   0.322   2.336  0.9684  2.4954  1.1586
   11SOL    HW2   33   0.509   0.304   2.495  0.5325  0.4259  0.8558
   12SOL     OW   34   0.891   1.843   0.831  0.4145 -0.4490 -0.2301
   12SOL    HW1   35   0.820   1.911   0.850  0.4753 -0.3830 -0.2341
   12SOL    HW2   36   0.980   1.883   0.853  0.3034 -1.3678  2.1239
   13SOL     OW   37   1.994   1.945   1.156  0.6995  0.4931 -0.1715
   13SOL    HW1   38   1.913   1.993   1.188  0.3550  0.3409 -0.7967
   13SOL    HW2   39   2.007   1.963   1.058  1.1449  0.1349 -0.1837
   14SOL     OW   40   1.639   0.713   1.029  0.5107 -0.1486 -0.2374
   14SOL    HW1   41   1.681   0.802   1.010  1.8422 -0.1850  2.2159
   14SOL    HW2   42   1.682   0.644   0.971  2.6124  0.1432  0.8616
   15SOL     OW   43   1.891   0.527   1.173  0.3234 -0.2908 -0.1480
   15SOL    HW1   44   1.979   0.503   1.132  0.8139 -2.2799  1.9048
   15SOL    HW2   45   1.884   0.626   1.181  2.5329 -0.1025 -0.0162
   16SOL     OW   46   0.271   1.180   0.653 -0.2099 -0.8369  0.1541
   16SOL    HW1   47   0.239   1.250   0.589  0.4117  0.5051  1.2605
   16SOL    HW2   48   0.370   1.168   0.643  0.4528  1.4900  2.7162
   17SOL     OW   49   1.835   0.425   1.814 -0.0220  0.1486  0.1693
   17SOL    HW1   50   1.894   0.349   1.787 -1.0075 -1.2054  1.5947
   17SOL    HW2   51   1.860   0.456   1.906 -0.1917  0.9759 -0.0497
   18SOL     OW   52   0.733   0.121   2.472 -0.1958  0.0302  0.3521
   18SOL    HW1   53   0.734   0.220   2.454 -1.6555 -0.3212 -1.9406
   18SOL    HW2   54   0.826   0.091   2.496  1.2877  1.2759 -3.2059
   19SOL     OW   55   0.684   1.618   1.310 -0.2267  0.1705 -0.6809
   19SOL    HW1   56   0.767   1.638   1.362 -1.2137 -3.2721  2.7531
   19SOL    HW2   57   0.618   1.692   1.323  0.5368  0.6224  0.8661
   20SOL     OW   58   1.066   0.213   1.240 -0.1263  0.1435 -0.4785
   20SOL    HW1   59   1.084   0.181   1.147  1.6113 -1.6061  0.3960
   20SOL    HW2   60   1.020   0.141   1.292  1.7041 -0.1139  0.8655
   21SOL     OW   61   0.354   1.214   0.202 -0.6033  0.4967  0.3551
   21SOL    HW1   62   0.419   1.285   0.174 -0.0364  0.6208  1.8981
   21SOL    HW2   63   0.260   1.247   0.188 -0.3490  0.8501 -0.5926
   22SOL     OW   64   0.621   2.421   2.282 -0.5105 -0.4814 -0.5060
   22SOL    HW1   65   0.709   2.461   2.309 -0.9129  0.2163 -0.2049
   22SOL    HW2   66   0.621   2.405   2.184  0.3531 -1.4998 -0.3642
   23SOL     OW   67   0.578   0.729   1.804  0.6059 -0.0796  0.3084
   23SOL    HW1   68   0.677   0.714   1.815  0.2403 -1.2786  2.3140
   23SOL    HW2   69   0.534   0.643   1.782 -0.1253  0.2844  0.3355
   24SOL     OW   70   0.581   2.427   0.731 -0.0845 -0.0702 -0.2318
   24SOL    HW1   71   0.503   2.365   0.731 -0.3821  0.2797  0.6464
   24SOL    HW2   72   0.661   2.381   0.691 -0.5395 -0.6983 -0.4233
   25SOL     OW   73   2.274   0.335   2.005 -0.2391 -1.1327 -0.1541
   25SOL    HW1   74   2.364   0.364   1.974 -1.6120  1.8558 -1.7874
   25SOL    HW2   75   2.280   0.245   2.048  3.5722 -0.7763  0.3626
   26SOL     OW   76   0.954   2.494   0.573 -0.6651  0.0997  0.0568
   26SOL    HW1   77   0.903   2.418   0.611 -1.5045  0.9701  0.7218
   26SOL    HW2   78   1.052   2.475   0.577 -0.8601 -0.8868  0.2886
   27SOL     OW   79   1.428   2.011   1.371 -1.2691 -0.3259  0.4450
   27SOL    HW1   80   1.464   1.925   1.335 -1.1581 -0.2044  0.2614
   27SOL    HW2   81   1.352   1.992   1.433 -0.5452 -0.6147  1.2713
   28SOL     OW   82   1.509   0.356   2.499 -0.4497 -0.2560 -0.0087
   28SOL    HW1   83   1.513   0.434   2.562  0.5445 -0.5803  0.3524
   28SOL    HW2   84   1.600   0.315   2.491 -0.6182 -0.3953 -1.4619
   29SOL     OW   85   0.799   0.903   0.740 -0.2943 -0.6900  0.0905
   29SOL    HW1   86   0.761   0.989   0.775  1.2079 -0.7415  2.0355
   29SOL    HW2   87   0.800   0.904   0.640 -0.2051  1.5870  0.0830
   30SOL     OW   88   1.485   0.111   1.127 -0.6218  0.1343  0.1276
   30SOL    HW1   89   1.488   0.162   1.041  0.1754 -0.2508 -0.0892
   30SOL    HW2   90   1.436   0.164   1.196 -0.3324  0.9230 -0.2579
   31SOL     OW   91   0.217   0.609   0.823  0.0105  1.0334  0.2199
   31SOL    HW1   92   0.309   0.592   0.787 -0.1862 -0.2797  0.2770
   31SOL    HW2   93   0.223   0.646   0.916  0.4792  1.7572 -0.0899
   32SOL     OW   94   2.487   1.365   1.518 -0.4801  0.2392  0.1334
   32SOL    HW1   95   2.492   1.461   1.542 -0.9439  0.7268 -1.5322
   32SOL    HW2   96   2.479   1.356   1.418  0.7336 -1.5683  0.1481
   33SOL     OW   97   1.595   2.213   2.420  0.3265  0.2128 -0.7242
   33SOL    HW1   98   1.647   2.183   2.340  1.3679 -0.8938  0.3122
   33SOL    HW2   99   1.645   2.285   2.467  0.2547  0.1080 -0.4858
   34SOL     OW  100   1.624   0.959   2.097  0.6149 -0.1912 -0.1644
   34SOL    HW1  101   1.653   0.997   2.009  1.0065 -0.9889 -0.3867
   34SOL    HW2  102   1.653   1.020   2.170  1.5893 -0.2391 -0.4905
   35SOL     OW  103   1.807   2.134   1.291  0.2775  0.2064  0.4292
   35SOL    HW1  104   1.775   2.142   1.197 -0.2100  0.7610  0.6412
   35SOL    HW2  105   1.746   2.183   1.353  0.0359 -0.9780  1.1683
   36SOL     OW  106   1.207   1.717   1.131  0.3017 -0.1459 -0.0345
   36SOL    HW1  107   1.205   1.768   1.045  0.4998 -2.9989 -1.8704
   36SOL    HW2  108   1.124   1.737   1.183  0.7420  2.5738 -0.2250
   37SOL     OW  109   2.212   1.445   0.100 -0.6454 -0.1775 -0.5770
   37SOL    HW1  110   2.270   1.374   0.142 -0.3237  0.5801  0.2866
   37SOL    HW2  111   2.147   1.480   0.167  2.6348  4.0781  0.8454
   38SOL     OW  112   2.020   0.142   0.233 -0.0701  0.1878  0.2259
   38SOL    HW1  113   2.022   0.140   0.333  1.6454  1.3609  0.2674
   38SOL    HW2  114   2.052   0.055   0.197  1.5549  0.5263  0.7623
   39SOL     OW  115   1.519   1.333   1.828  0.2629  0.2327 -0.0052
   39SOL    HW1  116   1.439   1.386   1.855  1.1808  0.4602  2.5902
   39SOL    HW2  117   1.490   1.244   1.792 -1.1669  0.4464  0.5651
   40SOL     OW  118   2.301   1.038   0.426 -0.3776 -0.2722  0.7867
   40SOL    HW1  119   2.234   1.001   0.490  0.8401 -1.0903  1.6267
   40SOL    HW2  120   2.330   0.965   0.363  0.7946 -0.3173  1.3690
   41SOL     OW  121   0.538   1.174   2.085  0.2853  0.3226 -0.7212
   41SOL    HW1  122   0.574   1.144   2.174 -0.6069  1.9911  0.2675
   41SOL    HW2  123   0.587   1.127   2.012  2.9474  0.8368  0.5783
   42SOL     OW  124   1.550   0.698   1.875 -0.1990  0.3994 -0.8975
   42SOL    HW1  125   1.584   0.621   1.821 -1.6327 -1.0077  0.1235
   42SOL    HW2  126   1.452   0.688   1.889 -0.4065  2.3748 -0.6086
   43SOL     OW  127   0.204   1.994   1.416 -0.2677 -0.1122 -0.2845
   43SOL    HW1  128   0.235   2.076   1.464 -0.8474  0.1699 -0.3828
   43SOL    HW2  129   0.108   2.005   1.390 -0.6184 -1.1977  0.5081
   44SOL     OW  130   1.198   2.358   1.208 -0.5571  0.1099 -0.0244
   44SOL    HW1  131   1.194   2.258   1.214 -0.3050 -0.0080 -1.3984
   44SOL    HW2  132   1.293   2.388   1.210 -0.6833  0.5327  2.6223
   45SOL     OW  133   1.356   2.346   1.566 -0.3141 -0.0175 -0.1303
   45SOL    HW1  134   1.410   2.261   1.570 -2.1212 -1.1808  3.1711
   45SOL    HW2  135   1.384   2.398   1.486  5.0626 -0.8686  0.7669
   46SOL     OW  136   2.104   0.372   0.617  0.1735 -0.0915 -1.0272
   46SOL    HW1  137   2.151   0.375   0.705 -0.3708  0.0754 -0.7359
   46SOL    HW2  138   2.153   0.428   0.551 -0.0566  0.7429 -0.5035
   47SOL     OW  139   1.424   1.327   2.177  0.0949  0.4143  0.0012
   47SOL    HW1  140   1.501   1.263   2.169 -0.8568 -0.8185  0.4236
   47SOL    HW2  141   1.411   1.374   2.090  0.6499 -0.1532 -0.4003
   48SOL     OW  142   2.369   1.356   1.810 -0.0579 -0.7475  0.3892
   48SOL    HW1  143   2.410   1.342   1.720  0.4101  0.0352  0.4710
   48SOL    HW2  144   2.436   1.332   1.881 -0.8306 -2.5747  0.5661
   49SOL     OW  145   0.344   0.805   1.921  0.2975 -0.4090 -0.4481
   49SOL    HW1  146   0.272   0.766   1.863  0.5007 -0.4633 -0.6636
   49SOL    HW2  147   0.431   0.801   1.873  0.1204  1.4455 -0.9710
   50SOL     OW  148   0.080   1.624   0.377 -0.4382  0.0862 -0.3489
   50SOL    HW1  149   0.037   1.667   0.297 -0.4336  0.5365 -0.1121
   50SOL    HW2  150   0.115   1.694   0.438 -0.5724 -0.2517  0.1257
   51SOL     OW  151   1.520   0.298   0.925 -0.3433 -0.4305  0.4112
   51SOL    HW1  152   1.511   0.356   0.844 -0.5948 -1.1763 -0.1130
   51SOL    HW2  153   1.593   0.333   0.983 -0.7387  0.6123  0.2917
   52SOL     OW  154   1.742   1.308   0.647 -0.3815  0.3990  0.4868
   52SOL    HW1  155   1.784   1.226   0.685 -0.2042 -0.3618 -1.2681
   52SOL    HW2  156   1.767   1.387   0.703  1.2752 -0.4060  0.9424
   53SOL     OW  157   0.405   1.302   1.257  0.1128  0.1187  0.4071
   53SOL    HW1  158   0.457   1.368   1.203 -0.2016  0.9135  1.0691
   53SOL    HW2  159   0.403   1.214   1.208  0.9922  0.4334 -0.2157
   54SOL     OW  160   2.225   0.390   1.402 -0.3234 -0.0794  0.1020
   54SOL    HW1  161   2.235   0.475   1.351  0.5335 -0.0367  0.3194
   54SOL    HW2  162   2.313   0.341   1.402 -0.3969 -0.2325  1.2674
   55SOL     OW  163   0.628   0.847   2.060 -0.5245  0.1068 -0.1844
   55SOL    HW1  164   0.681   0.932   2.060 -0.9012  0.3449 -0.3519
   55SOL    HW2  165   0.615   0.816   1.966  1.0272 -1.0411 -0.0653
   56SOL     OW  166   0.818   2.278   0.653  0.3283  0.2798 -0.2763
   56SOL    HW1  167   0.807   2.231   0.566 -1.9050  0.4497 -0.1375
   56SOL    HW2  168   0.830   2.210   0.726  0.3797  0.0697 -0.4795
   57SOL     OW  169   0.271   0.266   1.397  0.5539  0.5361 -0.1881
   57SOL    HW1  170   0.344   0.210   1.359  1.3911  1.6289 -0.2410
   57SOL    HW2  171   0.292   0.363   1.383 -0.5922  0.8882  0.3707
   58SOL     OW  172   1.874   0.725   1.702  0.6344  0.3466 -0.2678
   58SOL    HW1  173   1.963   0.726   1.746  0.9555 -0.6700 -0.8439
   58SOL    HW2  174   1.844   0.630   1.691 -1.5657  0.6913  1.9549
   59SOL     OW  175   0.259   1.811   0.517  0.1863 -0.2346  0.1947
   59SOL    HW1  176   0.234   1.864   0.436  1.3051 -0.9722 -0.6635
   59SOL    HW2  177   0.350   1.838   0.548  0.8298 -1.7162 -0.3271
   60SOL     OW  178   0.556   1.464   1.128  0.3334 -0.4504 -0.1978
   60SOL    HW1  179   0.528   1.500   1.039  1.1810  0.1846 -0.2116
   60SOL    HW2  180   0.610   1.532   1.177 -0.3765 -0.6673  0.9422
   61SOL     OW  181   0.004   1.982   0.663 -0.5417  0.2657  0.0739
   61SOL    HW1  182   0.061   1.902   0.682  0.0147  0.7786  0.5993
   61SOL    HW2  183  -0.091   1.961   0.686 -0.2559  0.0462  1.0898
   62SOL     OW  184   1.215   2.065   1.179  0.0403  0.4935  0.5552
   62SOL    HW1  185   1.274   2.075   1.260 -0.4916  0.8137  0.9078
   62SOL    HW2  186   1.271   2.074   1.096  0.5062  0.7079  0.8863
   63SOL     OW  187   1.456   0.044   2.446 -0.2623  0.6445  0.1070
   63SOL    HW1  188   1.394   0.067   2.522 -0.5375 -2.4489  0.9766
   63SOL    HW2  189   1.402   0.021   2.365 -0.2415 -0.6502  0.4373
   64SOL     OW  190   0.161   1.949   1.783  0.0029 -0.2750  0.4359
   64SOL    HW1  191   0.087   1.926   1.847 -0.9076  0.1503 -0.4357
   64SOL    HW2  192   0.165   1.880   1.711  0.1442 -0.0448  0.2221
   65SOL     OW  193   1.263   1.400   0.670  0.5019 -0.0387  0.8657
   65SOL    HW1  194   1.195   1.326   0.669 -2.8937  2.8127  0.0004
   65SOL    HW2  195   1.334   1.381   0.603  1.3932 -3.6878  2.5509
   66SOL     OW  196   0.560   0.766   0.293  0.8486 -0.5419 -0.7078
   66SOL    HW1  197   0.606   0.718   0.368  0.9233 -1.3654 -1.2685
   66SOL    HW2  198   0.565   0.864   0.309  2.3977 -0.6245 -0.5172
   67SOL     OW  199   1.241   1.799   2.360  0.7903 -0.6537  0.0480
   67SOL    HW1  200   1.256   1.841   2.449  0.8067  0.0111 -0.2618
   67SOL    HW2  201   1.254   1.700   2.367  0.3231 -0.6638  0.8856
   68SOL     OW  202   1.225   0.672   1.914  0.0462  0.1200  0.0989
   68SOL    HW1  203   1.228   0.733   1.834  0.1821  0.7574  0.5861
   68SOL    HW2  204   1.201   0.579   1.884 -1.4487  0.6789 -0.4999
   69SOL     OW  205   0.413   0.493   0.355  0.3425 -0.3092  0.2193
   69SOL    HW1  206   0.446   0.576   0.311  0.2568  0.2891  1.2639
   69SOL    HW2  207   0.468   0.474   0.436 -0.6544 -0.3822  0.8877
   70SOL     OW  208   2.273   1.783   2.449 -0.5503 -0.4581  0.4316
   70SOL    HW1  209   2.274   1.701   2.392 -0.4423 -0.9739  1.1549
   70SOL    HW2  210   2.288   1.864   2.393  0.6686 -1.0465 -0.1110
   71SOL     OW  211   0.578   0.764   0.893  0.5399 -0.2944  0.5516
   71SOL    HW1  212   0.670   0.774   0.855  1.5437 -0.5675  2.7792
   71SOL    HW2  213   0.545   0.671   0.874 -0.4316  0.5497 -2.4923
   72SOL     OW  214   0.146   2.433   0.425  0.0904 -0.5083 -0.2939
   72SOL    HW1  215   0.128   2.511   0.365 -1.9835 -0.1229  0.7100
   72SOL    HW2  216   0.109   2.452   0.516 -0.1786 -2.5130  0.0731
   73SOL     OW  217   0.479   0.472   1.776 -0.0015 -0.1337  0.0843
   73SOL    HW1  218   0.401   0.412   1.759 -0.1777  0.5550 -1.8930
   73SOL    HW2  219   0.557   0.442   1.721  0.5629  0.2123  0.6826
   74SOL     OW  220   0.381   2.318   1.240 -0.3625 -0.3429  0.1115
   74SOL    HW1  221   0.323   2.379   1.186 -0.3747  0.2705  0.7947
   74SOL    HW2  222   0.360   2.223   1.219 -2.2671 -0.1559  0.9979
   75SOL     OW  223   0.135   1.566   1.856  0.1405 -0.8433 -0.3426
   75SOL    HW1  224   0.232   1.589   1.853  0.4536 -2.1317 -2.3195
   75SOL    HW2  225   0.085   1.624   1.791 -0.1202 -1.3201 -0.5748
   76SOL     OW  226   0.590   1.380   0.550  0.1841 -0.0891  0.4127
   76SOL    HW1  227   0.526   1.411   0.480  1.2452  0.8095 -0.2054
   76SOL    HW2  228   0.612   1.456   0.611 -1.3910 -1.0625  2.3226
   77SOL     OW  229   1.287   0.148   0.849 -0.7985 -0.4721 -0.6043
   77SOL    HW1  230   1.199   0.187   0.876 -0.8399 -1.2804  0.5133
   77SOL    HW2  231   1.361   0.206   0.883 -0.8802 -0.6328 -0.1464
   78SOL     OW  232   1.049   1.058   1.756 -0.6443  0.3377  0.2791
   78SOL    HW1  233   1.063   0.978   1.698 -0.2393  0.9251 -0.4501
   78SOL    HW2  234   1.001   1.031   1.839  0.9481 -0.9762  0.8344
   79SOL     OW  235   2.277   0.508   0.421 -0.0440 -0.5439 -0.3561
   79SOL    HW1  236   2.237   0.559   0.345  0.8557  0.4022 -0.2053
   79SOL    HW2  237   2.292   0.413   0.392 -1.2118 -0.6106 -0.8134
   80SOL     OW  238   1.227   0.912   0.887 -0.5931  0.0650 -0.4244
   80SOL    HW1  239   1.138   0.872   0.862 -0.0395 -1.7945  0.3865
   80SOL    HW2  240   1.287   0.840   0.922  2.8360  0.2518 -4.9271
   81SOL     OW  241   1.442   2.187   0.413 -0.2753  0.4670  0.5127
   81SOL    HW1  242   1.452   2.283   0.439  0.0790  0.3907  0.6593
   81SOL    HW2  243   1.352   2.154   0.442 -1.6801  1.5841 -2.1733
   82SOL     OW  244   0.679   1.072   1.876  0.0080  0.5057 -0.0181
   82SOL    HW1  245   0.767   1.033   1.899 -0.3336 -0.0056  0.4265
   82SOL    HW2  246   0.688   1.129   1.794  0.5153 -0.4701 -0.6474
   83SOL     OW  247   0.433   2.083   0.181  0.3009  0.0113  0.4341
   83SOL    HW1  248   0.442   1.985   0.161 -0.1534  0.1239 -0.4012
   83SOL    HW2  249   0.481   2.135   0.111 -0.2335  0.4032  0.3543
   84SOL     OW  250   0.840   0.973   0.478  0.4331  0.4362  1.2409
   84SOL    HW1  251   0.837   0.923   0.391 -0.4583 -0.0591  1.5395
   84SOL    HW2  252   0.817   1.069   0.463 -0.7003  0.1507  1.0537
   85SOL     OW  253   1.232   1.679   0.678 -0.3007  0.2885  0.2565
   85SOL    HW1  254   1.229   1.579   0.685 -1.3929  0.4345  3.0758
   85SOL    HW2  255   1.317   1.706   0.632  0.5412 -1.8940  0.4021
   86SOL     OW  256   2.249   1.925   1.454 -0.0917 -0.2795 -0.0349
   86SOL    HW1  257   2.245   1.866   1.373 -1.3755  0.8604 -0.8448
   86SOL    HW2  258   2.307   2.004   1.435 -1.6887  0.8281 -0.4610
   87SOL     OW  259   0.870   0.537   0.806 -0.2309  0.0334  0.1461
   87SOL    HW1  260   0.812   0.490   0.873 -0.7877  0.7017  0.1372
   87SOL    HW2  261   0.838   0.516   0.713 -0.5038  0.4703  0.1437
   88SOL     OW  262   1.057   1.212   0.685  1.1311  0.3207 -0.2219
   88SOL    HW1  263   1.016   1.181   0.771  0.2485  1.8121 -0.0821
   88SOL    HW2  264   0.988   1.210   0.613  1.2578  1.1969 -0.3790
   89SOL     OW  265   1.084   0.336   2.495  0.3932 -0.6223 -0.3474
   89SOL    HW1  266   1.134   0.388   2.426 -0.1842 -0.4184 -0.6197
   89SOL    HW2  267   0.994   0.310   2.459 -0.2671  0.2437  0.6377
   90SOL     OW  268   0.617   1.598   1.657  0.2921  0.5909 -0.1535
   90SOL    HW1  269   0.647   1.570   1.748  1.9567  0.2780 -0.7622
   90SOL    HW2  270   0.573   1.520   1.611  0.8719  0.2772 -0.1869
   91SOL     OW  271   0.731   1.347   1.404  0.5944  0.0281 -0.4999
   91SOL    HW1  272   0.702   1.288   1.328 -1.2627 -0.1698  0.3026
   91SOL    HW2  273   0.711   1.443   1.380  0.4720  0.0109 -0.4702
   92SOL     OW  274   0.115   0.699   1.798 -0.5696 -0.8193  0.4142
   92SOL    HW1  275   0.115   0.622   1.734 -1.1775 -0.1783 -0.3848
   92SOL    HW2  276   0.047   0.767   1.768  0.4633  0.3752  0.6718
   93SOL     OW  277   1.169   0.779   0.499  0.3448 -0.3795 -0.1938
   93SOL    HW1  278   1.083   0.825   0.475  0.8191 -0.5700 -2.4590
   93SOL    HW2  279   1.220   0.835   0.564 -0.8289  0.4155  0.0750
   94SOL     OW  280   1.372   0.704   0.977  0.1029  0.1878 -0.3364
   94SOL    HW1  281   1.362   0.618   0.927  0.5032  0.2350 -0.4996
   94SOL    HW2  282   1.462   0.707   1.021 -0.8125 -0.5569  1.7177
   95SOL     OW  283   1.162   1.859   0.881  0.4058  0.5824 -0.2758
   95SOL    HW1  284   1.188   1.949   0.845  2.8659  0.8360  1.8232
   95SOL    HW2  285   1.214   1.788   0.834  0.3889  0.5020 -0.1735
   96SOL     OW  286   0.451   0.435   2.038 -0.3848 -0.5142  0.2564
   96SOL    HW1  287   0.471   0.451   1.942 -0.6263  0.9610  0.4314
   96SOL    HW2  288   0.410   0.517   2.078  0.6275 -0.7460  1.8753
   97SOL     OW  289   2.352   1.712   2.150 -0.5324  0.0101  0.1478
   97SOL    HW1  290   2.331   1.631   2.205  1.4198 -0.0970  0.7901
   97SOL    HW2  291   2.439   1.751   2.179  0.0257  0.6031 -2.1342
   98SOL     OW  292   1.889   0.462   2.090 -0.4243  0.0587 -0.5644
   98SOL    HW1  293   1.837   0.538   2.129  0.8965  0.7418 -0.0434
   98SOL    HW2  294   1.933   0.411   2.164 -1.5573 -1.4439 -0.8877
   99SOL     OW  295   0.541   0.998   1.054  0.1040  0.6073 -0.7533
   99SOL    HW1  296   0.546   0.922   0.988 -1.3062 -0.2038  0.0522
   99SOL    HW2  297   0.447   1.029   1.063  0.1423  0.2148  1.4294
  100SOL     OW  298   1.252   1.138   0.440 -0.0592 -0.1229 -0.0038
  100SOL    HW1  299   1.245   1.095   0.530 -1.0433  0.2153  0.0884
  100SOL    HW2  300   1.349   1.147   0.416  0.2619  0.5887  1.4073
  101SOL     OW  301   1.866   1.422   1.585  0.1515 -0.0816 -0.2381
  101SOL    HW1  302   1.869   1.328   1.619  0.3378 -0.4075 -1.1266
  101SOL    HW2  303   1.793   1.472   1.632 -0.7633 -1.0206 -0.6126
  102SOL     OW  304   0.928   2.095   1.024 -0.3105  0.4021 -0.0335
  102SOL    HW1  305   1.026   2.078   1.034 -0.6690 -1.0776  1.3586
  102SOL    HW2  306   0.877   2.042   1.093 -2.1364  0.6875 -1.0875
  103SOL     OW  307   0.485   0.660   1.454  0.1796  0.3206 -0.3828
  103SOL    HW1  308   0.548   0.694   1.384 -1.1798  0.6187 -1.5066
  103SOL    HW2  309   0.472   0.729   1.525  2.4769 -0.4150  0.8770
  104SOL     OW  310   0.966   1.567   0.882 -0.2597 -0.3845  0.1099
  104SOL    HW1  311   0.950   1.665   0.870  1.0620  0.1140  1.9276
  104SOL    HW2  312   1.049   1.540   0.833 -0.5523 -0.5747 -0.2852
  105SOL     OW  313   1.870   1.129   1.918  0.0768  0.3694  0.1725
  105SOL    HW1  314   1.951   1.099   1.968 -0.2879 -1.6246 -0.3591
  105SOL    HW2  315   1.816   1.050   1.890 -1.5194  1.5984 -0.4140
  106SOL     OW  316   0.817   0.400   2.410  0.2817  0.1489  0.0651
  106SOL    HW1  317   0.841   0.496   2.429  2.5347 -0.4859  0.7290
  106SOL    HW2  318   0.765   0.396   2.325  0.0462  1.9648  0.0650
  107SOL     OW  319   0.953   0.686   0.008  0.0324 -0.0613 -0.0836
  107SOL    HW1  320   1.000   0.628   0.074  1.6967  0.8779 -0.3823
  107SOL    HW2  321   1.006   0.690  -0.077 -2.0634 -1.2518 -1.5431
  108SOL     OW  322   1.522   0.737   2.424  0.1886 -0.4977  0.5994
  108SOL    HW1  323   1.472   0.770   2.504 -1.4623  1.8503 -1.2563
  108SOL    HW2  324   1.608   0.789   2.415 -1.0503  1.4622 -0.7171
  109SOL     OW  325   0.210   0.255   0.738  0.0576 -0.1410  0.2388
  109SOL    HW1  326   0.219   0.241   0.836 -0.1610 -3.9239 -0.1423
  109SOL    HW2  327   0.296   0.231   0.693 -0.2584  0.2806 -0.6116
  110SOL     OW  328   0.355   2.012   1.187 -0.5281  0.0877  0.4461
  110SOL    HW1  329   0.288   1.986   1.256  0.5248  0.4263  1.6338
  110SOL    HW2  330   0.320   1.990   1.096 -1.9042 -0.4549  1.0867
  111SOL     OW  331   0.980   0.030   2.065 -0.3644 -0.1711 -0.1537
  111SOL    HW1  332   1.035  -0.050   2.092 -2.1385 -1.1048  0.8696
  111SOL    HW2  333   0.987   0.043   1.966  2.3443  0.2961  0.0247
  112SOL     OW  334   0.956   1.278   1.033 -0.1189 -0.3726  0.1953
  112SOL    HW1  335   0.857   1.262   1.033 -0.3519  0.9601  0.9957
  112SOL    HW2  336   0.974   1.373   1.007  0.9744 -0.6870 -0.2285
  113SOL     OW  337   1.071   1.904   0.199 -0.5593  0.2606 -0.3039
  113SOL    HW1  338   1.013   1.985   0.195 -0.6497  0.1579 -2.5217
  113SOL    HW2  339   1.014   1.822   0.194 -0.3173  0.1604 -2.9811
  114SOL     OW  340   0.374   2.403   1.492 -0.4470  0.5988  0.6014
  114SOL    HW1  341   0.326   2.349   1.561  0.0445 -0.0171  0.4677
  114SOL    HW2  342   0.376   2.354   1.405  1.4857  0.0306  0.9199
  115SOL     OW  343   2.438   0.857   2.011  1.1149  0.1618 -0.1265
  115SOL    HW1  344   2.517   0.887   1.958  1.1358  0.1187 -0.1199
  115SOL    HW2  345   2.360   0.841   1.950  1.3749 -0.6927 -0.2556
  116SOL     OW  346   2.180   1.119   2.499 -0.3752 -0.3473  0.1256
  116SOL    HW1  347   2.213   1.208   2.529 -2.3286  0.1200  1.0622
  116SOL    HW2  348   2.234   1.088   2.420  1.1185  1.0756  0.5308
  117SOL     OW  349   0.213   1.502   1.250  0.1939 -0.1154 -0.1788
  117SOL    HW1  350   0.122   1.464   1.267  0.9831 -1.7312  0.7200
  117SOL    HW2  351   0.282   1.429   1.259  1.6486  1.2161 -0.0391
  118SOL     OW  352   0.196   0.615   1.104 -0.9648  0.4668  0.5902
  118SOL    HW1  353   0.154   0.705   1.114 -0.7812  0.3852  2.4664
  118SOL    HW2  354   0.223   0.581   1.194 -0.3152 -1.1305 -0.1733
  119SOL     OW  355   0.619   2.156   1.565 -0.3388 -0.2064  0.0227
  119SOL    HW1  356   0.592   2.219   1.638 -1.6914 -0.2487 -0.4113
  119SOL    HW2  357   0.629   2.206   1.479 -1.5227 -0.5610 -0.3461
  120SOL     OW  358   1.638   1.063   0.774  0.5292 -0.3651 -0.0724
  120SOL    HW1  359   1.598   0.997   0.711  0.6990 -0.3961 -0.1494
  120SOL    HW2  360   1.574   1.138   0.789  1.1895  0.6086 -1.7625
  121SOL     OW  361   0.285   2.456   2.135  0.2842  0.3731  0.2649
  121SOL    HW1  362   0.318   2.546   2.164  1.4923 -0.1097  0.4481
  121SOL    HW2  363   0.253   2.405   2.216  1.1691  0.0167  0.3939
  122SOL     OW  364   0.029   0.380   1.926  0.1543 -0.2727  0.1327
  122SOL    HW1  365   0.100   0.325   1.968  1.1659  0.3772 -0.6750
  122SOL    HW2  366   0.057   0.476   1.925 -0.2160 -0.1536 -1.2139
  123SOL     OW  367   0.695   0.410   0.945  0.5265 -0.0300  0.3622
  123SOL    HW1  368   0.690   0.433   1.042  0.5947  1.3183  0.0540
  123SOL    HW2  369   0.682   0.311   0.935 -0.5176 -0.0636  1.6590
  124SOL     OW  370   0.501   2.481   0.068  0.0420 -0.1837  0.3751
  124SOL    HW1  371   0.583   2.529   0.036 -0.8952  0.2782 -1.4885
  124SOL    HW2  372   0.504   2.386   0.038  0.6297 -0.6186  1.7324
  125SOL     OW  373   1.541   1.939   1.047  0.0201  0.3939 -0.0021
  125SOL    HW1  374   1.499   1.881   1.117  1.1866  1.0750  1.3157
  125SOL    HW2  375   1.493   2.027   1.043  1.0981  1.0802  1.3329
  126SOL     OW  376   1.523   1.162   0.316  0.4714 -0.2952 -0.4013
  126SOL    HW1  377   1.509   1.240   0.256  2.9985 -0.3873 -1.2463
  126SOL    HW2  378   1.611   1.172   0.364 -0.5592 -1.1679  1.8326
  127SOL     OW  379   0.951   1.991   2.379  0.2957 -0.8955  0.4550
  127SOL    HW1  380   0.883   2.063   2.394  0.3364 -0.2972 -1.7585
  127SOL    HW2  381   0.954   1.929   2.457 -0.9458  0.5460  1.6888
  128SOL     OW  382   2.154   0.753   2.011  0.4841  0.0409  0.3698
  128SOL    HW1  383   2.150   0.713   1.919  0.9273 -0.3047  0.4982
  128SOL    HW2  384   2.207   0.693   2.071  1.8489  1.1956  0.3744
  129SOL     OW  385   1.016   0.748   0.775  0.1849 -0.7295 -0.4904
  129SOL    HW1  386   0.952   0.824   0.759  2.1764  0.9310 -1.0039
  129SOL    HW2  387   0.964   0.665   0.796 -2.2057  0.1435 -2.3549
  130SOL     OW  388   2.129   1.510   1.526  0.2482  0.2325  0.5523
  130SOL    HW1  389   2.030   1.500   1.523  0.4093 -1.8924  0.6163
  130SOL    HW2  390   2.162   1.491   1.619  0.8100 -0.3794  0.2399
  131SOL     OW  391   1.207   2.112   0.785  0.2702 -0.2181 -0.3501
  131SOL    HW1  392   1.238   2.098   0.691 -0.3201  0.7434 -0.6979
  131SOL    HW2  393   1.187   2.208   0.800  1.2235 -0.2002  1.0449
  132SOL     OW  394   0.557   0.299   0.148 -0.7012  0.5718  0.4404
  132SOL    HW1  395   0.506   0.337   0.225 -1.5126 -2.2763  1.4324
  132SOL    HW2  396   0.619   0.227   0.180  0.8823  1.0807 -1.2923
  133SOL     OW  397   1.458   1.138   2.435  0.5941 -0.1923  0.3243
  133SOL    HW1  398   1.408   1.157   2.351  1.0061 -0.9380 -0.1022
  133SOL    HW2  399   1.413   1.064   2.485  0.4093  0.1764  0.7081
  134SOL     OW  400   0.707   0.060   1.345 -0.9187  0.4381  0.0516
  134SOL    HW1  401   0.804   0.037   1.353 -1.1051 -0.1766  0.7022
  134SOL    HW2  402   0.655  -0.022   1.318 -1.7149 -0.2876  3.2899
  135SOL     OW  403   2.471   0.840   0.819  0.1719  0.4663 -0.0878
  135SOL    HW1  404   2.493   0.920   0.763  0.9502  0.4257  0.1605
  135SOL    HW2  405   2.486   0.757   0.765  0.3900  0.4476  0.0021
  136SOL     OW  406   0.539   1.125   0.622  0.5880 -0.9307  1.0153
  136SOL    HW1  407   0.595   1.093   0.699  2.0724 -0.9142 -0.0179
  136SOL    HW2  408   0.546   1.224   0.614  1.4101 -1.0437  0.1595
  137SOL     OW  409   1.567   2.371   0.969  0.3723 -0.4693  0.7398
  137SOL    HW1  410   1.516   2.449   1.004  0.1097 -0.0738 -0.4834
  137SOL    HW2  411   1.654   2.364   1.017  1.2968  1.8072 -0.4638
  138SOL     OW  412   0.370   1.406   1.986  0.4788  0.0774  0.6429
  138SOL    HW1  413   0.436   1.480   1.972  1.8018 -1.2762 -0.5787
  138SOL    HW2  414   0.418   1.323   2.015  0.0100 -2.0369 -3.7752
  139SOL     OW  415   2.316   0.992   1.233 -0.2897  0.6161  0.1134
  139SOL    HW1  416   2.319   1.090   1.210  1.7524  0.4464 -0.4583
  139SOL    HW2  417   2.235   0.951   1.191 -0.3471  1.7538 -0.9406
  140SOL     OW  418   0.540   1.064   0.338 -0.2920 -0.1794  0.3265
  140SOL    HW1  419   0.461   1.124   0.320 -1.7045 -1.9809  0.2214
  140SOL    HW2  420   0.556   1.058   0.436 -0.8117 -0.4376  0.3975
  141SOL     OW  421   2.212   0.663   0.730 -0.0481 -0.0760  0.2528
  141SOL    HW1  422   2.248   0.579   0.771  0.5635  0.4560  0.8185
  141SOL    HW2  423   2.269   0.688   0.652  0.0558  0.0791  0.3791
  142SOL     OW  424   0.714   0.601   0.545  0.3441  0.2726  0.1152
  142SOL    HW1  425   0.651   0.678   0.557  0.1913  0.0151  1.0809
  142SOL    HW2  426   0.666   0.516   0.563  0.6327 -0.0201 -0.4896
  143SOL     OW  427   1.099   0.448   1.670 -0.2773  0.1611  0.1340
  143SOL    HW1  428   1.005   0.450   1.704 -0.4461 -1.9772 -0.0738
  143SOL    HW2  429   1.099   0.471   1.572 -1.0917 -2.8180 -0.6806
  144SOL     OW  430   1.690   2.057   0.371 -0.4998 -0.0605  0.7870
  144SOL    HW1  431   1.701   2.064   0.272 -0.6262 -0.1078  0.7687
  144SOL    HW2  432   1.614   2.115   0.400 -0.0769  0.4226  0.9373
  145SOL     OW  433   0.498   0.514   0.779 -0.0122 -0.4301  0.2316
  145SOL    HW1  434   0.507   0.463   0.694 -0.2519 -0.8785  0.4740
  145SOL    HW2  435   0.545   0.465   0.853  1.6337  0.7516  0.0452
  146SOL     OW  436   1.793   1.444   2.280 -0.2636 -0.0301  0.1355
  146SOL    HW1  437   1.724   1.407   2.217  1.3702 -1.3826 -0.9341
  146SOL    HW2  438   1.820   1.374   2.345  1.0953  0.0220 -0.3459
  147SOL     OW  439   2.046   1.793   0.506 -0.2101  0.1044  0.2879
  147SOL    HW1  440   2.002   1.881   0.520  0.8364  0.5525  0.8407
  147SOL    HW2  441   2.033   1.764   0.411  0.5592  1.4809 -0.2554
  148SOL     OW  442   1.947   2.057   0.497  0.1643  0.7165 -0.5438
  148SOL    HW1  443   1.874   2.064   0.429  0.5707 -0.3146 -1.1050
  148SOL    HW2  444   2.034   2.077   0.454  0.3778  0.4848 -0.2237
  149SOL     OW  445   0.665   0.733   1.221  0.3751 -0.7149  0.6046
  149SOL    HW1  446   0.742   0.780   1.264 -0.6341 -0.1402  1.8595
  149SOL    HW2  447   0.638   0.782   1.138  1.5591 -1.1206 -0.0359
  150SOL     OW  448   1.791   0.545   0.865 -0.1259 -0.2356 -0.3413
  150SOL    HW1  449   1.848   0.599   0.928 -3.0247 -0.4924  2.8289
  150SOL    HW2  450   1.825   0.451   0.861  1.1373  0.2072 -0.6679
  151SOL     OW  451   0.332   0.528   0.021 -0.4976 -0.2175  0.0552
  151SOL    HW1  452   0.392   0.454  -0.010 -0.0502  0.7025 -1.3615
  151SOL    HW2  453   0.387   0.607   0.049 -1.0017 -0.0025  0.4749
  152SOL     OW  454   0.595   2.486   1.597 -0.2213  0.2989  0.4711
  152SOL    HW1  455   0.515   2.439   1.560  0.2341  0.0151 -0.1587
  152SOL    HW2  456   0.644   2.531   1.524 -0.3949  1.3869  1.0077
  153SOL     OW  457   2.494   1.619   1.596  0.9864  0.1206 -0.6129
  153SOL    HW1  458   2.415   1.674   1.623  0.7205 -0.7963  0.5619
  153SOL    HW2  459   2.574   1.677   1.585  0.1944  1.0529 -1.7255
  154SOL     OW  460   0.902   1.681   0.176 -0.0522 -0.0192  0.0516
  154SOL    HW1  461   0.975   1.612   0.186 -0.3619 -0.5856 -1.2528
  154SOL    HW2  462   0.816   1.644   0.211 -0.5430 -0.9360 -1.9392
  155SOL     OW  463   0.341   0.256   1.665 -0.0011 -0.3723  0.1667
  155SOL    HW1  464   0.289   0.223   1.586 -1.9130  0.1881  1.1152
  155SOL    HW2  465   0.387   0.178   1.709  0.8776 -0.7201 -1.3233
  156SOL     OW  466   0.978   2.477   1.362  0.6010 -0.4944 -0.1367
  156SOL    HW1  467   1.008   2.446   1.452  1.3313 -1.7104 -0.7738
  156SOL    HW2  468   1.033   2.433   1.291  0.2988  0.7342 -1.1777
  157SOL     OW  469   1.821   1.621   0.663  0.7539  0.1812  0.4578
  157SOL    HW1  470   1.898   1.652   0.607  0.1312 -1.5194 -1.4708
  157SOL    HW2  471   1.846   1.625   0.759  3.2917 -0.3897 -0.1049
  158SOL     OW  472   0.438   1.993   1.777  0.1048 -0.1683 -0.2017
  158SOL    HW1  473   0.474   2.086   1.775 -0.8995  0.2355 -0.0507
  158SOL    HW2  474   0.343   1.994   1.747 -0.3189 -0.9678  1.0610
  159SOL     OW  475   1.322   0.218   1.322 -0.2105 -0.0084  0.2964
  159SOL    HW1  476   1.230   0.200   1.289 -0.9818 -1.0640  2.7354
  159SOL    HW2  477   1.322   0.218   1.422  2.5132 -0.5304  0.3891
  160SOL     OW  478   0.705   1.149   1.206  0.0680 -0.4547 -0.1401
  160SOL    HW1  479   0.623   1.104   1.171 -0.7768 -0.3369  1.5395
  160SOL    HW2  480   0.781   1.085   1.205 -0.1713 -0.7379 -1.2297
  161SOL     OW  481   1.030   0.485   1.268  0.0016  0.1081  0.1137
  161SOL    HW1  482   1.042   0.389   1.244 -1.6481 -0.1707  0.3062
  161SOL    HW2  483   1.089   0.508   1.345  0.6554 -0.6536 -0.1489
  162SOL     OW  484   0.577   1.844   0.647  0.1101 -0.2892 -0.2652
  162SOL    HW1  485   0.644   1.840   0.573  1.2920 -1.1316  0.7908
  162SOL    HW2  486   0.590   1.927   0.701 -0.0585 -0.1886 -0.3781
  163SOL     OW  487   1.488   0.382   2.003 -0.2159 -0.2019  0.5253
  163SOL    HW1  488   1.398   0.407   1.968  0.7722  1.1876 -1.1497
  163SOL    HW2  489   1.496   0.411   2.098 -1.7371 -0.9265  0.9098
  164SOL     OW  490   1.946   0.022   2.063  0.0590 -0.3147 -0.5485
  164SOL    HW1  491   1.894   0.098   2.100 -0.9619 -1.9605  1.6413
  164SOL    HW2  492   1.934   0.018   1.964 -1.2092  1.3412 -0.5023
  165SOL     OW  493   1.317   2.180   0.009 -0.0083 -0.1051 -0.2127
  165SOL    HW1  494   1.275   2.164  -0.081 -0.4470 -0.2024  0.0102
  165SOL    HW2  495   1.397   2.239  -0.003 -0.8000  0.9542 -0.5159
  166SOL     OW  496   2.289   1.576   1.308 -0.3538 -0.0233 -0.0487
  166SOL    HW1  497   2.229   1.548   1.383 -0.3009  1.3264  0.5276
  166SOL    HW2  498   2.263   1.667   1.276  1.0793  0.4110 -0.0885
  167SOL     OW  499   1.620   1.588   2.459 -0.0669 -0.1374 -0.1361
  167SOL    HW1  500   1.672   1.565   2.377  0.4008 -1.1395  0.4091
  167SOL    HW2  501   1.673   1.652   2.515 -0.4121  0.5917 -0.6380
  168SOL     OW  502   0.776   1.864   0.445  0.3613  1.2602  0.3237
  168SOL    HW1  503   0.870   1.853   0.478 -0.0056 -1.1368  0.7335
  168SOL    HW2  504   0.748   1.781   0.396 -2.4851  0.6257  2.7316
  169SOL     OW  505   1.224   1.493   1.286 -0.5458  0.6558 -0.5832
  169SOL    HW1  506   1.218   1.551   1.204 -1.0953  0.3772 -0.7463
  169SOL    HW2  507   1.303   1.433   1.278 -0.4203  0.8420 -0.7684
  170SOL     OW  508   0.487   0.895   1.609 -0.4672  0.2896  0.3095
  170SOL    HW1  509   0.438   0.978   1.635  1.9556  1.2840  2.1017
  170SOL    HW2  510   0.521   0.850   1.691  0.8648 -0.7970 -0.7974
  171SOL     OW  511   1.629   1.794   1.760 -0.0143  0.2961  0.1527
  171SOL    HW1  512   1.663   1.874   1.709  1.8847  0.1093  1.0360
  171SOL    HW2  513   1.692   1.773   1.835  0.0255 -2.5645 -0.5706
  172SOL     OW  514   1.208   1.122   2.185  0.3174 -0.1948  0.6105
  172SOL    HW1  515   1.254   1.210   2.171 -0.5528  0.0488 -0.9964
  172SOL    HW2  516   1.265   1.049   2.147 -0.0423 -0.0304 -0.2720
  173SOL     OW  517   2.411   1.271   2.241 -0.2437 -0.1023 -0.0410
  173SOL    HW1  518   2.509   1.272   2.262 -0.0991 -1.8983 -0.4360
  173SOL    HW2  519   2.398   1.276   2.142 -0.7788  4.3333  0.0564
  174SOL     OW  520   0.323   1.025   2.319  0.1037 -0.4850  0.6431
  174SOL    HW1  521   0.307   0.959   2.246 -0.9986 -0.1327  0.5418
  174SOL    HW2  522   0.309   0.980   2.408  0.8831 -0.7687  0.6282
  175SOL     OW  523   1.587   1.498   0.933  0.1429  0.0066  0.2305
  175SOL    HW1  524   1.566   1.499   1.031 -1.8754  0.1950 -0.1549
  175SOL    HW2  525   1.575   1.590   0.896 -0.6524 -0.3668 -0.4676
  176SOL     OW  526   2.247   2.138   0.755  0.1127 -0.0977  0.2452
  176SOL    HW1  527   2.320   2.199   0.784 -0.4757  0.6716  0.1179
  176SOL    HW2  528   2.183   2.187   0.695 -0.8270 -0.5980  0.8158
  177SOL     OW  529   1.146   1.639   1.530  0.0359 -0.0441  0.0241
  177SOL    HW1  530   1.161   1.601   1.438 -0.6169  0.0723 -0.1344
  177SOL    HW2  531   1.049   1.631   1.554 -0.5548  3.1487 -0.7771
  178SOL     OW  532   2.447   2.154   1.909  0.1741  0.3958  0.6984
  178SOL    HW1  533   2.442   2.054   1.920  0.3934 -0.0068 -2.2105
  178SOL    HW2  534   2.359   2.188   1.876  1.1065  0.5686 -1.8410
  179SOL     OW  535   0.679   0.404   1.575  0.0149 -0.1089  0.1219
  179SOL    HW1  536   0.737   0.478   1.541 -0.3322  0.2239  0.2460
  179SOL    HW2  537   0.598   0.396   1.517 -1.1598  1.2162  1.4872
  180SOL     OW  538   1.954   0.607   0.029 -0.0169  0.4180  0.3200
  180SOL    HW1  539   1.890   0.532   0.011 -0.2155  0.1385  1.9571
  180SOL    HW2  540   1.908   0.694   0.014  0.7780  0.3379 -3.5169
  181SOL     OW  541   1.985   1.062   0.231  0.1412  0.6922 -0.1146
  181SOL    HW1  542   1.899   1.019   0.203 -0.2387  1.9097 -0.9054
  181SOL    HW2  543   2.044   1.073   0.151 -0.0963  2.3195 -0.0914
  182SOL     OW  544   0.803   0.666   1.503  0.2675  0.4263 -0.2014
  182SOL    HW1  545   0.786   0.765   1.511 -1.0475  0.3549 -1.6079
  182SOL    HW2  546   0.874   0.651   1.435 -0.4257  0.3867 -0.9411
  183SOL     OW  547   1.530   1.976   0.667  0.1590 -0.1255 -1.1659
  183SOL    HW1  548   1.515   2.074   0.685 -2.4292 -0.7767  0.8668
  183SOL    HW2  549   1.501   1.954   0.574 -0.1625  0.8852 -1.3182
  184SOL     OW  550   0.926   1.405   1.893 -0.1271 -0.0006  0.1729
  184SOL    HW1  551   1.010   1.385   1.842 -0.0552  0.6610  0.0159
  184SOL    HW2  552   0.850   1.355   1.852  0.1119 -0.2732  0.0535
  185SOL     OW  553   0.381   1.552   0.147 -0.0018 -0.5545  0.5666
  185SOL    HW1  554   0.294   1.595   0.125  0.5286  0.0659 -0.3642
  185SOL    HW2  555   0.408   1.490   0.073  1.0085  0.3139  0.1874
  186SOL     OW  556   0.541   1.846   1.295  0.0069  0.2424  0.2321
  186SOL    HW1  557   0.489   1.918   1.249  0.5308  0.0045 -0.7659
  186SOL    HW2  558   0.560   1.874   1.389  1.2564  1.9759 -0.4837
  187SOL     OW  559   0.031   0.387   1.086 -0.3337 -0.2157  0.1333
  187SOL    HW1  560   0.016   0.386   0.987  0.3883 -0.5118  0.0178
  187SOL    HW2  561   0.071   0.474   1.113  1.0584 -0.7667 -0.0976
  188SOL     OW  562   2.079   0.428   1.004  0.4671 -0.1199  0.0255
  188SOL    HW1  563   2.015   0.369   0.955  0.1966 -1.0218  1.4215
  188SOL    HW2  564   2.164   0.435   0.951 -0.6673  0.9367 -1.7428
  189SOL     OW  565   1.515   0.456   0.700 -0.5533 -0.7185 -0.2121
  189SOL    HW1  566   1.445   0.528   0.710  1.0923  0.8997  0.1480
  189SOL    HW2  567   1.556   0.462   0.610  0.2255 -0.6052  0.1443
  190SOL     OW  568   2.020   2.019   0.889  0.2816  0.8657  0.6317
  190SOL    HW1  569   1.961   2.015   0.808  0.5044  1.8685  0.4017
  190SOL    HW2  570   2.114   2.034   0.860  0.7213 -1.0313  0.9808
  191SOL     OW  571   2.439   0.886   1.700 -0.2697 -0.3998 -0.0400
  191SOL    HW1  572   2.442   0.890   1.600 -2.6401 -2.6294 -0.3101
  191SOL    HW2  573   2.380   0.960   1.734 -2.4497 -1.7596 -0.6680
  192SOL     OW  574   1.474   1.043   1.414 -0.3428  0.4680 -0.7111
  192SOL    HW1  575   1.566   1.075   1.439 -0.5688  1.2716 -0.8776
  192SOL    HW2  576   1.419   1.032   1.497  0.2824 -1.2724 -0.4909
  193SOL     OW  577   0.531   2.221   0.435  0.4895 -0.3815  0.1803
  193SOL    HW1  578   0.474   2.187   0.359 -0.1041 -1.0159  0.8993
  193SOL    HW2  579   0.614   2.166   0.441 -0.3609 -1.6268  1.1935
  194SOL     OW  580   1.069   1.359   0.409 -0.5222  0.4299 -0.8061
  194SOL    HW1  581   0.979   1.334   0.443  0.4575  0.0905  1.7444
  194SOL    HW2  582   1.130   1.279   0.414 -0.0999  0.5903 -2.6956
  195SOL     OW  583   0.706   0.139   0.903  0.3674 -0.0753 -0.7973
  195SOL    HW1  584   0.672   0.070   0.839  0.2099 -2.1094  1.3183
  195SOL    HW2  585   0.802   0.121   0.923  0.1153 -0.2003  0.3732
  196SOL     OW  586   1.597   0.288   1.384 -0.0243  0.9153 -0.3450
  196SOL    HW1  587   1.511   0.279   1.434 -0.1475  1.4237 -0.4667
  196SOL    HW2  588   1.655   0.209   1.405 -0.8447  0.1311 -0.9173
  197SOL     OW  589   0.804   2.195   2.455  0.1297 -0.4660  0.4700
  197SOL    HW1  590   0.848   2.272   2.411  0.1788 -0.7224  0.0651
  197SOL    HW2  591   0.705   2.212   2.461  0.2286 -0.0663  1.0205
  198SOL     OW  592   2.015   0.156   1.106 -0.6776  0.2372  0.5077
  198SOL    HW1  593   1.967   0.146   1.019  0.6924  0.4075 -0.2938
  198SOL    HW2  594   2.098   0.210   1.092  0.3835 -1.0329  1.6080
  199SOL     OW  595   1.466   1.388   0.173  0.5014  0.3649 -0.3060
  199SOL    HW1  596   1.482   1.335   0.090 -1.2629  0.2101 -0.5937
  199SOL    HW2  597   1.430   1.478   0.148  0.3919  0.4813  0.2627
  200SOL     OW  598   0.220   2.418   1.049  0.1369 -0.3470 -0.1469
  200SOL    HW1  599   0.161   2.369   0.985  0.2789  1.1614 -1.4847
  200SOL    HW2  600   0.213   2.516   1.033  1.4313 -0.0177  1.0824
  201SOL     OW  601   1.783   2.471   1.190 -0.2080 -0.1130  0.1458
  201SOL    HW1  602   1.763   2.473   1.288 -0.7449 -0.1536  0.0420
  201SOL    HW2  603   1.809   2.563   1.159  0.6887 -0.2533  0.4676
  202SOL     OW  604   1.543   1.746   0.866  0.1252  0.4144 -0.3301
  202SOL    HW1  605   1.525   1.812   0.937 -1.0629  0.4296 -0.6297
  202SOL    HW2  606   1.550   1.792   0.777 -0.0736  0.2118 -0.4535
  203SOL     OW  607   0.648   1.587   1.922  0.1956  0.2876 -0.5763
  203SOL    HW1  608   0.639   1.686   1.909 -1.2224  0.1728 -0.6961
  203SOL    HW2  609   0.676   1.568   2.016  1.7644  0.8278 -0.9102
  204SOL     OW  610   1.310   0.229   0.156 -0.1068 -0.6631 -0.4820
  204SOL    HW1  611   1.384   0.265   0.098  0.5582 -1.8724 -0.4038
  204SOL    HW2  612   1.222   0.250   0.113  0.2869  0.3104 -0.8546
  205SOL     OW  613   1.208   2.390   0.775  0.1786  0.0582  0.3117
  205SOL    HW1  614   1.263   2.366   0.696  0.4606  0.2764  0.4403
  205SOL    HW2  615   1.221   2.487   0.796 -0.3825  0.1525  0.2400
  206SOL     OW  616   2.380   2.152   1.347 -0.2668  0.6665 -0.0303
  206SOL    HW1  617   2.293   2.154   1.298  0.1371 -0.3608 -0.8333
  206SOL    HW2  618   2.441   2.222   1.310  0.0445 -0.1205 -1.0637
  207SOL     OW  619   0.143   0.327   0.085 -0.1043  0.1313 -0.1750
  207SOL    HW1  620   0.170   0.274   0.004 -0.1787 -0.2127  0.0260
  207SOL    HW2  621   0.197   0.411   0.088  1.3491 -0.7831  0.4954
  208SOL     OW  622   0.605   1.062   2.328  0.3494 -0.4899  0.1360
  208SOL    HW1  623   0.637   1.050   2.422  0.3868  2.1367  0.5357
  208SOL    HW2  624   0.505   1.055   2.326  0.2246  0.8265  0.6751
  209SOL     OW  625   1.968   2.029   1.961  0.1607  0.0753  0.0781
  209SOL    HW1  626   1.947   1.980   1.876  1.2089  1.3604 -0.9595
  209SOL    HW2  627   2.013   1.966   2.024  0.4420 -0.6155 -0.7829
  210SOL     OW  628   1.990   0.296   2.286  0.3051  0.3856 -0.0962
  210SOL    HW1  629   1.933   0.272   2.365 -0.7422  0.3678 -0.8488
  210SOL    HW2  630   2.086   0.294   2.314 -0.0555  0.8149  1.3030
  211SOL     OW  631   0.403   0.121   0.623  0.1767  0.0729 -0.4427
  211SOL    HW1  632   0.469   0.079   0.685  1.2502  0.2733 -1.4113
  211SOL    HW2  633   0.404   0.073   0.535 -0.9776  0.0823 -0.4748
  212SOL     OW  634   1.261   0.604   0.715 -0.3403 -0.0592 -0.1459
  212SOL    HW1  635   1.210   0.522   0.691 -1.0445 -0.1075  1.3759
  212SOL    HW2  636   1.198   0.680   0.731  0.2225  0.4793 -0.4259
  213SOL     OW  637   1.867   0.317   0.052  0.0299 -0.6577  0.1518
  213SOL    HW1  638   1.942   0.283   0.110  0.9939 -1.7710 -1.6620
  213SOL    HW2  639   1.804   0.242   0.032 -1.2876  0.1411  1.1825
  214SOL     OW  640   1.025   0.879   1.515  0.0206  0.2727 -0.1117
  214SOL    HW1  641   0.945   0.940   1.514  1.6089  2.5321  0.8008
  214SOL    HW2  642   1.018   0.814   1.439 -3.2032 -0.4117  0.6216
  215SOL     OW  643   1.571   0.522   0.259 -0.7515  0.2734  0.5118
  215SOL    HW1  644   1.651   0.574   0.289 -1.7054  2.0547  0.0349
  215SOL    HW2  645   1.487   0.568   0.286 -1.6558 -1.1749  0.3281
  216SOL     OW  646   0.660   2.358   2.016 -0.1035 -0.4022 -0.3923
  216SOL    HW1  647   0.757   2.335   2.014  0.5697  1.8806  1.3821
  216SOL    HW2  648   0.607   2.277   2.042  1.4270 -1.4023 -0.2575
  217SOL     OW  649   1.582   0.439   1.748  0.5635  0.1593  0.2101
  217SOL    HW1  650   1.680   0.418   1.742  0.7905  1.0533  0.6669
  217SOL    HW2  651   1.543   0.389   1.826  0.3910 -1.1182 -0.6649
  218SOL     OW  652   1.317   1.134   1.022  0.0668 -0.0320 -0.1169
  218SOL    HW1  653   1.274   1.068   0.960  0.5477  0.3090 -0.8154
  218SOL    HW2  654   1.352   1.211   0.970  0.8480  0.0643  0.5322
  219SOL     OW  655   1.959   2.350   2.361 -0.3233 -0.1788  0.0369
  219SOL    HW1  656   1.977   2.391   2.272 -0.3269 -0.7697 -0.2367
  219SOL    HW2  657   1.973   2.252   2.356  0.1505 -0.1590  0.8126
  220SOL     OW  658   2.297   1.803   1.684  0.6155 -0.2526  0.0389
  220SOL    HW1  659   2.228   1.732   1.699  0.1299  0.2419  0.1937
  220SOL    HW2  660   2.275   1.853   1.600  0.2004  0.5602  0.6137
  221SOL     OW  661   1.076   0.547   0.206 -0.2491  0.2348 -0.2316
  221SOL    HW1  662   1.079   0.462   0.154  0.7648  0.0969  0.0364
  221SOL    HW2  663   1.031   0.530   0.294 -1.4914  0.3515 -0.8270
  222SOL     OW  664   2.041   1.775   0.193  0.1988 -0.3465  0.1000
  222SOL    HW1  665   2.031   1.682   0.227 -0.2390 -0.5122 -0.4689
  222SOL    HW2  666   1.951   1.813   0.172  0.3940  0.1120  0.0649
  223SOL     OW  667   2.083   0.243   1.849  0.6727 -0.3071  0.5698
  223SOL    HW1  668   2.090   0.291   1.761  1.4640 -0.4736  0.5337
  223SOL    HW2  669   2.137   0.291   1.917  1.5112 -1.1616  0.5235
  224SOL     OW  670   0.198   1.345   1.684  0.0330  0.1059  0.1892
  224SOL    HW1  671   0.174   1.411   1.755  0.3006 -0.2396  0.6025
  224SOL    HW2  672   0.119   1.332   1.623 -0.7258 -0.7593  1.3307
  225SOL     OW  673   2.325   2.473   1.886  0.6072 -0.7259  0.4621
  225SOL    HW1  674   2.311   2.525   1.970  1.8667 -2.6713  1.9447
  225SOL    HW2  675   2.259   2.398   1.882  1.5687 -1.5991  0.5486
  226SOL     OW  676   1.796   1.734   1.975  0.1385 -0.1142  0.5794
  226SOL    HW1  677   1.828   1.703   2.065  0.0815 -0.7631  0.3799
  226SOL    HW2  678   1.859   1.701   1.904  1.5658  2.3879  0.5558
  227SOL     OW  679   2.000   0.714   0.888 -0.5685  0.0282 -0.4874
  227SOL    HW1  680   2.079   0.707   0.827  0.7061  1.8136  0.8371
  227SOL    HW2  681   2.031   0.737   0.980 -2.6977  1.9802 -0.1649
  228SOL     OW  682   1.856   1.145   1.250 -0.8079  0.1518 -0.2155
  228SOL    HW1  683   1.812   1.099   1.328 -0.7409  2.1890  1.1089
  228SOL    HW2  684   1.851   1.244   1.263  3.3763  0.5464 -0.4468
  229SOL     OW  685   2.215   0.108   2.126  0.2903 -0.0631 -0.2818
  229SOL    HW1  686   2.228   0.158   2.211  2.3683 -1.6367  0.4153
  229SOL    HW2  687   2.119   0.084   2.116 -0.0877  0.6410  1.3253
  230SOL     OW  688   1.695   1.103   2.344  0.0264  0.0996 -0.3470
  230SOL    HW1  689   1.748   1.182   2.374  0.6548 -0.0775 -0.9868
  230SOL    HW2  690   1.605   1.104   2.389  0.4296  0.5928  0.4585
  231SOL     OW  691   1.558   1.489   1.196 -0.4731 -0.1789  0.6091
  231SOL    HW1  692   1.504   1.413   1.231 -0.9505 -0.4845 -0.7108
  231SOL    HW2  693   1.654   1.478   1.222 -0.0670 -2.5434 -1.5220
  232SOL     OW  694   0.890   0.980   1.981 -0.3293  0.6432  0.4287
  232SOL    HW1  695   0.923   0.886   1.995 -0.5014  0.3825 -0.7700
  232SOL    HW2  696   0.913   1.036   2.061  0.6063 -0.1929  0.7697
  233SOL     OW  697   0.767   1.383   2.125 -0.6135  0.6880 -0.3343
  233SOL    HW1  698   0.711   1.300   2.115 -2.0508  1.5381  0.3807
  233SOL    HW2  699   0.843   1.379   2.060 -0.2879 -1.4558  0.0839
  234SOL     OW  700   2.398   0.272   1.710 -0.3174  0.1017 -0.3686
  234SOL    HW1  701   2.309   0.314   1.725  0.0303  0.1342  2.0377
  234SOL    HW2  702   2.457   0.289   1.789  1.5716 -0.5769 -1.5601
  235SOL     OW  703   1.133   1.501   0.203 -0.0922 -0.5347  0.8794
  235SOL    HW1  704   1.230   1.524   0.215  0.1453 -0.4951 -0.7624
  235SOL    HW2  705   1.099   1.455   0.285  1.6981 -1.7945  0.9901
  236SOL     OW  706   0.989   0.080   1.778  0.0158  0.7544 -0.1035
  236SOL    HW1  707   1.086   0.074   1.754  0.0640  2.5023 -0.4595
  236SOL    HW2  708   0.959   0.175   1.770 -1.5867  0.3260  0.5763
  237SOL     OW  709   1.106   0.389   0.628 -0.1027 -0.1603  0.0795
  237SOL    HW1  710   1.192   0.360   0.585 -1.1705 -1.2099 -1.4562
  237SOL    HW2  711   1.057   0.450   0.566 -1.6400 -1.6266 -0.2325
  238SOL     OW  712   2.084   2.435   0.075  0.1862  0.7734 -0.6816
  238SOL    HW1  713   2.180   2.459   0.061  0.6681 -0.8168 -0.3760
  238SOL    HW2  714   2.043   2.410  -0.013  0.7679 -0.8730 -0.5245
  239SOL     OW  715   0.881   0.359   1.778  0.6890  0.0851  0.0080
  239SOL    HW1  716   0.859   0.326   1.870  0.3552  0.2230 -0.0229
  239SOL    HW2  717   0.797   0.376   1.727  0.8218  1.5296  0.2128
  240SOL     OW  718   1.154   1.609   2.045  0.7601 -0.2307  0.9148
  240SOL    HW1  719   1.056   1.589   2.040  1.3448 -3.1019 -0.7799
  240SOL    HW2  720   1.172   1.696   1.999 -0.7985 -0.4709 -0.2215
  241SOL     OW  721   0.836   2.390   1.727  0.0653 -0.1299  0.0343
  241SOL    HW1  722   0.895   2.461   1.763 -0.5979  0.2254  0.4423
  241SOL    HW2  723   0.749   2.430   1.697  0.1098 -0.6012 -0.7881
  242SOL     OW  724   1.110   1.029   0.215 -0.1736  0.3714 -0.0120
  242SOL    HW1  725   1.080   1.103   0.155  0.0047  1.2067  0.9089
  242SOL    HW2  726   1.143   1.067   0.301 -0.0772 -0.7881  0.4793
  243SOL     OW  727   0.793   0.233   1.986 -0.5011 -0.0224  0.1318
  243SOL    HW1  728   0.724   0.186   1.930  1.1821 -1.9756 -0.4267
  243SOL    HW2  729   0.822   0.173   2.061  0.5211  0.7873  0.4089
  244SOL     OW  730   1.330   1.895   0.098  0.6147  0.0070  0.3300
  244SOL    HW1  731   1.360   1.989   0.083 -0.0404  0.0244 -0.9611
  244SOL    HW2  732   1.243   1.895   0.146 -0.1487  0.1256 -1.0108
  245SOL     OW  733   1.895   2.457   0.512 -0.0062 -0.4161 -0.3355
  245SOL    HW1  734   1.843   2.517   0.573 -0.7130 -0.9349 -0.4131
  245SOL    HW2  735   1.846   2.447   0.425  1.7166  1.5480 -1.6481
  246SOL     OW  736   1.796   0.032   1.470 -0.0011 -0.2813  0.5277
  246SOL    HW1  737   1.729   0.009   1.540  0.6566  0.2389  1.3436
  246SOL    HW2  738   1.888   0.012   1.504  0.6210  3.1404  1.1823
  247SOL     OW  739   1.247   0.051   1.726 -0.1979  0.0008 -0.1174
  247SOL    HW1  740   1.316   0.080   1.793  0.4612 -0.0822 -0.7537
  247SOL    HW2  741   1.288  -0.014   1.662 -0.7388  0.3113 -0.7887
  248SOL     OW  742   1.508   0.882   0.266  0.0162 -0.6449 -0.1127
  248SOL    HW1  743   1.516   0.977   0.297 -0.8669 -0.5755 -0.0686
  248SOL    HW2  744   1.416   0.867   0.228  0.0849 -1.5286  0.0487
  249SOL     OW  745   1.774   1.428   0.171  0.0308 -0.3268 -0.4618
  249SOL    HW1  746   1.705   1.461   0.108  0.1163  0.0022 -0.3847
  249SOL    HW2  747   1.729   1.386   0.251 -0.0809 -0.1031 -0.4059
  250SOL     OW  748   2.056   0.405   1.604 -0.0015 -0.6441 -0.0781
  250SOL    HW1  749   1.973   0.423   1.550  0.9280  3.0618 -0.5852
  250SOL    HW2  750   2.136   0.413   1.544  0.8696 -0.4098  1.0974
  251SOL     OW  751   1.561   0.883   0.551 -0.2264  0.1871 -0.0542
  251SOL    HW1  752   1.620   0.812   0.590  1.3327  2.1887  1.4487
  251SOL    HW2  753   1.553   0.870   0.452  0.1003 -1.9596  0.1581
  252SOL     OW  754   1.011   0.741   2.057 -0.0467 -0.3909  0.2407
  252SOL    HW1  755   1.077   0.713   1.987  0.5126  1.3864  0.0106
  252SOL    HW2  756   1.051   0.729   2.148  0.2464 -0.1820  0.1388
  253SOL     OW  757   0.776   1.405   2.412 -0.0259  0.3735 -0.5051
  253SOL    HW1  758   0.772   1.450   2.322  1.1486  1.2764 -0.1232
  253SOL    HW2  759   0.866   1.418   2.452  0.1827 -1.8779 -0.1084
  254SOL     OW  760   2.375   0.740   0.520 -0.4330 -0.0585 -0.7934
  254SOL    HW1  761   2.440   0.799   0.474  1.9196 -2.9840 -1.5654
  254SOL    HW2  762   2.362   0.656   0.466 -0.5291 -1.9828  1.9984
  255SOL     OW  763   2.254   1.046   2.256 -0.4614  0.4123  0.5508
  255SOL    HW1  764   2.311   1.124   2.231 -1.5837  0.8466 -0.8073
  255SOL    HW2  765   2.312   0.967   2.275  0.6389  0.4040 -2.2316
  256SOL     OW  766   1.742   2.088   2.201 -0.1093  0.5686 -0.5811
  256SOL    HW1  767   1.743   2.142   2.117  0.7331  0.6204 -0.5420
  256SOL    HW2  768   1.696   2.001   2.183 -0.1879  0.6978 -1.0227
  257SOL     OW  769   2.056   0.787   0.342 -0.3122  0.3512 -0.0265
  257SOL    HW1  770   2.017   0.850   0.275  1.3575 -0.5589 -1.9439
  257SOL    HW2  771   2.105   0.714   0.295 -2.0315 -2.3828  2.0896
  258SOL     OW  772   2.191   0.724   1.504 -0.2816 -1.0660 -0.3587
  258SOL    HW1  773   2.282   0.765   1.491 -1.5692  1.5297 -2.0765
  258SOL    HW2  774   2.163   0.677   1.420 -0.8145 -1.2366 -0.0896
  259SOL     OW  775   2.103   1.020   1.594  0.1701 -0.1781  0.2792
  259SOL    HW1  776   2.107   0.923   1.569  1.8418 -0.3801  1.1892
  259SOL    HW2  777   2.182   1.043   1.652 -0.1267  1.7552 -0.0171
  260SOL     OW  778   1.424   1.640   0.104  0.6248 -0.3478 -0.2404
  260SOL    HW1  779   1.495   1.625   0.036  1.4114  1.7898  0.0334
  260SOL    HW2  780   1.392   1.735   0.099 -3.2039 -1.4907 -1.2380
  261SOL     OW  781   1.803   0.804   1.460 -0.0645  0.3278 -0.5152
  261SOL    HW1  782   1.713   0.760   1.460  1.1942 -2.5295 -1.2917
  261SOL    HW2  783   1.846   0.790   1.550  0.8481 -1.3003 -1.1615
  262SOL     OW  784   0.644   1.583   0.247 -0.6118  0.2709  0.1045
  262SOL    HW1  785   0.548   1.578   0.217 -0.7870  0.3687  0.6425
  262SOL    HW2  786   0.690   1.497   0.225 -0.4418  0.7338 -1.4316
  263SOL     OW  787   1.730   2.033   0.088 -0.1372  0.3854  0.1179
  263SOL    HW1  788   1.810   2.091   0.101 -0.0431 -0.0016  1.3294
  263SOL    HW2  789   1.668   2.077   0.023  0.2310  1.5250  0.5072
  264SOL     OW  790   2.486   0.516   0.717 -0.4018 -0.4119 -0.5372
  264SOL    HW1  791   2.577   0.540   0.751 -1.5743  0.5936  2.1835
  264SOL    HW2  792   2.482   0.532   0.619  3.0154 -2.8052 -1.2387
  265SOL     OW  793   1.280   0.921   0.020  0.3520  0.3400  0.3109
  265SOL    HW1  794   1.231   0.874  -0.054  3.4770 -0.9931 -1.0784
  265SOL    HW2  795   1.216   0.941   0.095 -2.9313  1.5844 -2.5523
  266SOL     OW  796   0.850   1.270   0.492  0.1557 -0.4253 -0.2774
  266SOL    HW1  797   0.762   1.308   0.522  1.0985  1.5919  0.1107
  266SOL    HW2  798   0.847   1.254   0.393 -0.3065  0.7415 -0.4760
  267SOL     OW  799   0.191   2.201   1.640 -0.2391  0.0509 -0.5845
  267SOL    HW1  800   0.176   2.119   1.696  0.1447  0.1354 -0.3561
  267SOL    HW2  801   0.124   2.271   1.664  0.2819  0.3027  0.1959
  268SOL     OW  802   1.231   0.795   1.684 -0.2608  0.0631  0.4464
  268SOL    HW1  803   1.289   0.724   1.643 -1.4952 -1.6418  1.4863
  268SOL    HW2  804   1.159   0.821   1.620  0.0440  0.2107  0.1571
  269SOL     OW  805   2.289   1.508   2.335 -0.3690  0.0339 -0.0825
  269SOL    HW1  806   2.259   1.508   2.431 -0.7278 -0.4812 -0.1882
  269SOL    HW2  807   2.337   1.422   2.315  0.0836  0.3221 -0.2526
  270SOL     OW  808   1.016   1.203   0.036 -0.2418 -0.1209 -0.3636
  270SOL    HW1  809   1.037   1.297   0.009  1.5592 -0.4997 -0.4124
  270SOL    HW2  810   0.996   1.148  -0.045  0.0814 -0.0787 -0.4750
  271SOL     OW  811   0.667   2.046   0.870  0.0549  0.1623 -0.6307
  271SOL    HW1  812   0.585   2.100   0.891 -0.6324 -0.9476 -0.4023
  271SOL    HW2  813   0.724   2.040   0.952 -0.3283 -0.2288 -0.3865
  272SOL     OW  814   1.258   1.501   2.294 -0.1074 -0.4032  0.0033
  272SOL    HW1  815   1.316   1.422   2.277 -0.9412 -1.2563  1.0021
  272SOL    HW2  816   1.214   1.530   2.209  0.8651 -0.4618 -0.5349
  273SOL     OW  817   1.997   2.086   1.487  0.2774 -0.7712  0.2394
  273SOL    HW1  818   1.930   2.076   1.413 -0.0110  0.3908  0.3385
  273SOL    HW2  819   2.079   2.033   1.464 -0.2249 -1.2891 -0.4094
  274SOL     OW  820   1.082   0.314   0.921  0.0379  0.4458  0.4153
  274SOL    HW1  821   1.088   0.348   0.827 -1.5738  0.2454  0.2136
  274SOL    HW2  822   1.108   0.387   0.985  2.0308  0.3142 -0.1812
  275SOL     OW  823   1.361   2.043   1.725 -0.0764 -0.3612  0.0169
  275SOL    HW1  824   1.321   1.981   1.657 -1.1038 -0.7333  0.9278
  275SOL    HW2  825   1.460   2.049   1.710 -0.4204  0.6649 -2.3645
  276SOL     OW  826   1.673   2.485   1.704  0.7416  0.3326  0.0927
  276SOL    HW1  827   1.604   2.554   1.725  1.3054  1.7360 -2.2342
  276SOL    HW2  828   1.755   2.501   1.759  0.7789  1.4457 -0.2570
  277SOL     OW  829   1.455   0.106   1.897 -0.7087 -0.0828 -0.3354
  277SOL    HW1  830   1.504   0.043   1.957  0.0185  0.8138  0.0455
  277SOL    HW2  831   1.455   0.198   1.938 -1.7693  0.1694 -0.8591
  278SOL     OW  832   0.393   1.488   0.407  0.2882  0.0910  0.1713
  278SOL    HW1  833   0.363   1.579   0.435 -3.9275 -0.9634 -0.2370
  278SOL    HW2  834   0.406   1.485   0.308 -1.3947 -0.0920 -0.0765
  279SOL     OW  835   0.280   0.179   2.322 -0.6244 -0.2474 -0.1486
  279SOL    HW1  836   0.351   0.233   2.368 -0.9331  0.7999 -0.8731
  279SOL    HW2  837   0.248   0.107   2.383  0.2749 -0.0297  0.5947
  280SOL     OW  838   2.307   0.392   0.833  0.2715  0.3392 -0.2450
  280SOL    HW1  839   2.326   0.297   0.856  0.6772  0.4006 -0.3194
  280SOL    HW2  840   2.391   0.436   0.802 -0.2025  0.3400 -1.5809
  281SOL     OW  841   2.415   2.224   2.176  0.3234  0.2468 -0.0326
  281SOL    HW1  842   2.392   2.234   2.079 -2.1958  0.5604  0.5403
  281SOL    HW2  843   2.512   2.245   2.189  0.4950  1.1853 -2.3333
  282SOL     OW  844   0.067   1.299   1.981 -0.3055  0.1686 -0.0075
  282SOL    HW1  845   0.143   1.233   1.988  0.3927  0.7868 -1.3803
  282SOL    HW2  846   0.101   1.385   1.944 -1.3222  1.1451  1.2393
  283SOL     OW  847   1.281   0.737   1.240 -0.0390  0.0390 -0.5226
  283SOL    HW1  848   1.298   0.704   1.147  0.5619  0.0109 -0.4080
  283SOL    HW2  849   1.249   0.832   1.236 -0.7908 -0.2215 -0.7971
  284SOL     OW  850   0.387   1.701   1.834  0.2626 -0.4959  0.1426
  284SOL    HW1  851   0.398   1.792   1.874 -1.5445  0.2142 -0.8838
  284SOL    HW2  852   0.476   1.656   1.831  0.9897  0.6809  1.8912
  285SOL     OW  853   0.945   1.960   1.789 -0.5635  0.1352  0.5185
  285SOL    HW1  854   0.907   1.975   1.698 -0.9690  1.7292  0.9077
  285SOL    HW2  855   0.919   1.870   1.823 -0.9532 -0.2121 -0.6775
  286SOL     OW  856   2.239   1.817   1.190  0.5917  0.0406 -0.1211
  286SOL    HW1  857   2.167   1.883   1.169  0.3725 -0.7501 -2.0619
  286SOL    HW2  858   2.324   1.846   1.148  1.3455  0.7252  1.7702
  287SOL     OW  859   0.800   1.969   2.157 -0.7400 -0.3460  0.3178
  287SOL    HW1  860   0.810   2.062   2.122 -0.3396 -0.8532 -0.9970
  287SOL    HW2  861   0.874   1.949   2.221  0.7561 -0.5948 -1.3946
  288SOL     OW  862   0.235   1.792   1.575 -0.6537  0.3710 -0.4231
  288SOL    HW1  863   0.215   1.861   1.506  1.0071  0.5196 -0.8062
  288SOL    HW2  864   0.330   1.760   1.564 -0.4527  0.1544  1.5783
  289SOL     OW  865   0.768   1.898   1.154 -0.4899  0.4548 -0.4816
  289SOL    HW1  866   0.771   1.815   1.098 -2.5207 -0.0295  0.0368
  289SOL    HW2  867   0.680   1.903   1.201  0.1202  2.2318  0.5697
  290SOL     OW  868   0.573   0.309   1.314  0.1975  0.2508 -0.2422
  290SOL    HW1  869   0.635   0.379   1.277  0.5632 -0.4215 -0.9345
  290SOL    HW2  870   0.627   0.232   1.347 -0.2561 -0.3320 -0.8297
  291SOL     OW  871   1.350   1.910   2.133  0.1688  0.1813  0.1635
  291SOL    HW1  872   1.314   1.878   2.221  0.7039  2.6176  1.3608
  291SOL    HW2  873   1.303   1.863   2.058 -0.8885 -1.3590  1.7156
  292SOL     OW  874   0.587   0.077   1.863  0.0011  0.3663  0.4245
  292SOL    HW1  875   0.587  -0.001   1.926  0.2268 -0.1706 -0.2301
  292SOL    HW2  876   0.557   0.047   1.773 -0.5092  1.1753  0.3215
  293SOL     OW  877   1.401   1.847   0.445  0.3814  0.1667 -0.5365
  293SOL    HW1  878   1.353   1.844   0.358 -1.0587 -1.4113  0.2532
  293SOL    HW2  879   1.477   1.781   0.444 -0.2766 -0.6141 -0.2754
  294SOL     OW  880   0.044   2.318   0.090  0.1986 -0.3009 -0.1460
  294SOL    HW1  881   0.120   2.382   0.103 -0.5449  0.7014 -0.5550
  294SOL    HW2  882  -0.023   2.331   0.164 -0.1783 -0.2587 -0.4890
  295SOL     OW  883   1.519   2.445   0.481  0.5687  0.8062  0.2193
  295SOL    HW1  884   1.603   2.445   0.426  0.5946 -0.4809  0.2299
  295SOL    HW2  885   1.511   2.533   0.529  1.2059  1.4606 -0.8203
  296SOL     OW  886   0.020   0.955   0.018 -0.6069 -0.1982  0.1189
  296SOL    HW1  887  -0.002   0.924  -0.075  2.1640  0.0797 -0.6990
  296SOL    HW2  888   0.116   0.982   0.023 -1.0048  1.0627  2.7649
  297SOL     OW  889   0.250   2.113   0.730  0.1742  0.4292  0.4164
  297SOL    HW1  890   0.159   2.089   0.695  1.3198 -0.2593 -2.3893
  297SOL    HW2  891   0.281   2.198   0.686  1.2693  0.1182  0.5622
  298SOL     OW  892   1.428   0.610   1.569 -0.4498 -0.2356  0.1020
  298SOL    HW1  893   1.485   0.647   1.496 -0.7906 -2.8825 -1.6293
  298SOL    HW2  894   1.487   0.567   1.638 -0.2304  0.3588  0.2964
  299SOL     OW  895   0.639   2.280   1.287 -0.0769 -0.2810  0.1163
  299SOL    HW1  896   0.540   2.284   1.271  0.0541  1.6251 -0.4378
  299SOL    HW2  897   0.684   2.240   1.207 -0.3912 -1.2940  0.4301
  300SOL     OW  898   1.906   1.276   2.441 -0.1342  0.1640  0.2087
  300SOL    HW1  899   1.995   1.250   2.405  0.6618  2.9537 -0.0671
  300SOL    HW2  900   1.910   1.283   2.541  0.0179  0.3922  0.1888
  301SOL     OW  901   0.675   0.380   2.185  0.3133 -0.1657 -0.3394
  301SOL    HW1  902   0.584   0.405   2.152  0.9690  0.9220 -1.4095
  301SOL    HW2  903   0.732   0.351   2.108  1.0730 -0.1754  0.2121
  302SOL     OW  904   0.979   0.042   0.052 -0.4942  0.4851  0.2195
  302SOL    HW1  905   1.016  -0.042   0.090 -1.3323 -0.3605 -0.7647
  302SOL    HW2  906   1.019   0.121   0.099 -0.2368 -0.4664  1.6393
  303SOL     OW  907   0.765   2.122   0.422  0.1226 -0.1761 -0.0264
  303SOL    HW1  908   0.838   2.155   0.362 -0.4701 -2.1752 -1.9852
  303SOL    HW2  909   0.763   2.022   0.420 -1.2140 -0.2302  1.8080
  304SOL     OW  910   1.312   0.982   0.652  0.1487  0.3588 -0.2988
  304SOL    HW1  911   1.409   0.992   0.629  0.1330  0.5586 -0.2818
  304SOL    HW2  912   1.304   0.958   0.749  0.1256  1.9327  0.1085
  305SOL     OW  913   0.075   1.778   2.276  0.2675  0.2788  0.3075
  305SOL    HW1  914   0.131   1.699   2.252 -0.0015  0.2087 -0.1019
  305SOL    HW2  915   0.122   1.862   2.247  0.4235  0.2519  0.4849
  306SOL     OW  916   0.156   0.553   0.375  0.2391 -0.2937  0.0643
  306SOL    HW1  917   0.128   0.595   0.289 -0.2686 -3.0522 -1.1905
  306SOL    HW2  918   0.249   0.517   0.366  0.1870 -0.5943  0.6831
  307SOL     OW  919   1.232   1.902   1.511  0.5951 -0.0843 -0.1993
  307SOL    HW1  920   1.222   1.802   1.520  2.0687 -0.3379 -1.0659
  307SOL    HW2  921   1.150   1.940   1.469  0.1703 -0.9812 -0.2046
  308SOL     OW  922   2.499   0.296   1.350  0.3355 -0.1767 -0.0712
  308SOL    HW1  923   2.501   0.342   1.261 -0.1195  1.8015  0.8729
  308SOL    HW2  924   2.592   0.287   1.384  0.3500  2.4897  0.8361
  309SOL     OW  925   1.184   1.840   1.923  0.0218  0.3785  0.0300
  309SOL    HW1  926   1.226   1.811   1.838  1.4930  2.5670 -0.0649
  309SOL    HW2  927   1.116   1.911   1.904  1.2079  1.7549  0.7069
  310SOL     OW  928   0.955   0.043   0.900  0.0433  0.3776 -0.2278
  310SOL    HW1  929   0.989  -0.032   0.843  0.2942 -0.9606  1.5895
  310SOL    HW2  930   1.009   0.125   0.883  2.6584 -1.0089  0.7928
  311SOL     OW  931   1.137   2.362   0.162  0.3530  0.1074  0.5239
  311SOL    HW1  932   1.185   2.415   0.232 -1.2132  2.0301  0.2342
  311SOL    HW2  933   1.201   2.300   0.117  2.2153  1.4878  1.1566
  312SOL     OW  934   1.784   0.766   0.658  0.3491  0.2324 -0.6671
  312SOL    HW1  935   1.876   0.798   0.681  0.3955 -0.6110  0.3970
  312SOL    HW2  936   1.763   0.684   0.712 -0.6964 -0.0916 -1.5358
  313SOL     OW  937   2.129   1.038   2.016 -1.1119 -0.1981  0.1349
  313SOL    HW1  938   2.151   1.047   2.113 -1.5304  0.9546  0.1364
  313SOL    HW2  939   2.163   0.950   1.982 -0.2936 -0.2859  1.1368
  314SOL     OW  940   0.581   2.487   0.343 -0.2795 -0.0190 -0.3200
  314SOL    HW1  941   0.577   2.397   0.385  1.1901  0.5213  1.0630
  314SOL    HW2  942   0.536   2.484   0.253 -1.6848 -1.6983  0.3892
  315SOL     OW  943   0.558   0.371   0.548  0.0612 -0.3012  1.3981
  315SOL    HW1  944   0.495   0.301   0.582  1.0334 -0.0328  3.9431
  315SOL    HW2  945   0.645   0.328   0.524 -0.1104 -0.2708  0.7129
  316SOL     OW  946   1.461   2.403   1.301 -0.1143  0.1674  0.5753
  316SOL    HW1  947   1.524   2.325   1.305  0.2603  0.3928 -0.6645
  316SOL    HW2  948   1.509   2.483   1.265 -1.0687  0.3773 -0.2626
  317SOL     OW  949   1.051   2.293   1.589 -0.0006 -0.1396  0.5728
  317SOL    HW1  950   0.969   2.314   1.642  0.3520  1.7952  0.4341
  317SOL    HW2  951   1.129   2.282   1.651  0.0065  0.0075  0.5908
  318SOL     OW  952   1.239   0.367   1.894 -0.1079 -0.2927  0.0909
  318SOL    HW1  953   1.175   0.362   1.817 -1.3309 -1.5708  1.1196
  318SOL    HW2  954   1.189   0.350   1.979  0.6276  3.7760  1.5601
  319SOL     OW  955   0.069   0.301   0.497  0.1254  0.0275  0.0806
  319SOL    HW1  956   0.118   0.294   0.584 -0.0140  0.9168  0.2395
  319SOL    HW2  957   0.084   0.391   0.458  0.2411 -0.3913 -0.8612
  320SOL     OW  958   0.578   0.728   2.296  0.5773 -0.0361 -0.1287
  320SOL    HW1  959   0.614   0.800   2.236 -1.8821  1.3430 -0.0706
  320SOL    HW2  960   0.563   0.645   2.244  1.6855  0.0483 -0.6152
  321SOL     OW  961   1.235   2.053   0.523  0.3342  0.0492 -0.2162
  321SOL    HW1  962   1.137   2.033   0.530  0.3497  0.5680  1.9879
  321SOL    HW2  963   1.284   1.969   0.502 -0.5206 -0.2886 -0.9602
  322SOL     OW  964   1.897   1.634   1.197 -0.6091 -0.7317  0.5000
  322SOL    HW1  965   1.952   1.716   1.207 -0.5444 -0.7995  0.6953
  322SOL    HW2  966   1.883   1.614   1.100  1.0224 -1.6012  0.4166
  323SOL     OW  967   1.577   1.668   0.544  0.3764  0.1613  0.1635
  323SOL    HW1  968   1.656   1.647   0.601  0.2441  0.4612  0.4571
  323SOL    HW2  969   1.531   1.583   0.518  0.3501  0.0361  0.6234
  324SOL     OW  970   2.172   2.162   1.176  0.5919  0.6095 -0.3843
  324SOL    HW1  971   2.102   2.091   1.177  0.0407  1.1353  0.5537
  324SOL    HW2  972   2.128   2.252   1.168  1.1460  0.9493  0.2691
  325SOL     OW  973   1.053   2.089   1.384  0.0145 -0.1566  0.0374
  325SOL    HW1  974   1.103   2.079   1.298  2.1229 -0.4032  1.2099
  325SOL    HW2  975   1.065   2.182   1.419  0.4653 -0.4783  0.7801
  326SOL     OW  976   0.305   2.475   1.814 -0.5215  0.2937 -0.2856
  326SOL    HW1  977   0.211   2.460   1.783 -1.6362  0.9249  2.4787
  326SOL    HW2  978   0.304   2.526   1.900  2.4441  1.4986 -0.8281
  327SOL     OW  979   2.436   0.890   1.445 -0.3000 -0.7450  0.1095
  327SOL    HW1  980   2.532   0.919   1.454  0.4115 -2.1517 -2.0768
  327SOL    HW2  981   2.392   0.942   1.372 -1.4355  0.2822  1.4644
  328SOL     OW  982   0.241   1.949   0.955  0.4787 -0.3794  0.0054
  328SOL    HW1  983   0.268   2.005   0.877  1.8544 -0.7640  0.1768
  328SOL    HW2  984   0.215   1.858   0.924  1.5388 -0.7029  0.0111
  329SOL     OW  985   1.456   0.519   2.237  0.2122 -0.3177 -0.2555
  329SOL    HW1  986   1.527   0.584   2.209  0.5149 -0.9984 -1.1168
  329SOL    HW2  987   1.460   0.506   2.336  0.2920  0.7941 -0.1047
  330SOL     OW  988   0.072   2.275   0.855 -0.4779  0.2757 -0.2527
  330SOL    HW1  989   0.125   2.196   0.826 -0.5052  0.0259  0.3662
  330SOL    HW2  990   0.015   2.251   0.934  0.0580  1.1006  0.4006
  331SOL     OW  991   2.463   1.388   1.224  0.0084 -0.2121  0.0650
  331SOL    HW1  992   2.461   1.376   1.124  1.0845 -1.0605  0.1286
  331SOL    HW2  993   2.389   1.449   1.251  0.2097  0.7066 -1.3448
  332SOL     OW  994   1.020   1.796   0.563  0.0393  0.2421 -0.6440
  332SOL    HW1  995   0.966   1.787   0.647  0.4131  0.9536 -0.3186
  332SOL    HW2  996   1.096   1.732   0.565  1.0924  1.4569  0.4002
  333SOL     OW  997   1.750   2.419   0.018  0.2473  0.4052  0.0895
  333SOL    HW1  998   1.714   2.502  -0.025 -1.4987 -1.9689 -3.5594
  333SOL    HW2  999   1.839   2.397  -0.022 -0.8689 -1.1963 -1.7320
  334SOL     OW 1000   1.287   0.004   0.327 -0.0017 -0.1540 -0.0938
  334SOL    HW1 1001   1.366  -0.011   0.386 -0.0447 -0.9336 -0.2276
  334SOL    HW2 1002   1.286   0.099   0.297 -0.9705  0.8056  2.6126
  335SOL     OW 1003   2.191   1.723   0.726 -0.5582 -0.0369 -0.3816
  335SOL    HW1 1004   2.223   1.800   0.782  1.2246  0.9001 -2.5481
  335SOL    HW2 1005   2.141   1.759   0.647 -0.1319 -1.1384 -1.1633
  336SOL     OW 1006   1.145   1.404   1.665  0.0477  0.3832  0.0783
  336SOL    HW1 1007   1.073   1.354   1.617  1.1604  0.5711 -1.8825
  336SOL    HW2 1008   1.149   1.498   1.630 -0.8577  1.4249  2.4793
  337SOL     OW 1009   0.050   2.458   1.707  0.3524 -0.2230 -0.3625
  337SOL    HW1 1010  -0.009   2.470   1.628 -1.2503  0.0104  0.8130
  337SOL    HW2 1011  -0.006   2.458   1.790  2.0870  0.7145  0.8635
  338SOL     OW 1012   0.543   1.961   2.270  0.7548  0.4732  0.3036
  338SOL    HW1 1013   0.635   1.942   2.235  0.1171 -2.2084 -0.1392
  338SOL    HW2 1014   0.524   1.900   2.347 -1.3941 -0.5819 -0.9650
  339SOL     OW 1015   1.728   0.228   2.090  0.2538 -0.0171 -0.3081
  339SOL    HW1 1016   1.793   0.302   2.073 -0.2675  0.6703  0.6524
  339SOL    HW2 1017   1.638   0.254   2.056 -0.1657  0.2221  0.9675
  340SOL     OW 1018   0.196   2.244   2.357 -0.0163  0.1941  0.8619
  340SOL    HW1 1019   0.183   2.149   2.331 -1.3205  0.7231 -0.5787
  340SOL    HW2 1020   0.123   2.272   2.419 -1.5539  1.0723 -1.2167
  341SOL     OW 1021   0.969   1.004   1.160  0.2302 -0.7308 -0.2482
  341SOL    HW1 1022   0.985   1.082   1.099 -0.0920 -1.8484 -1.8287
  341SOL    HW2 1023   1.028   1.013   1.240  0.3838  0.9982 -0.5008
  342SOL     OW 1024   2.252   2.039   2.331 -0.1605 -0.0409  0.2938
  342SOL    HW1 1025   2.159   2.069   2.312  0.1197 -0.5610 -2.2435
  342SOL    HW2 1026   2.317   2.104   2.293  0.5247 -0.2797  1.0230
  343SOL     OW 1027   1.707   0.168   2.363  0.2803  0.8528 -0.0527
  343SOL    HW1 1028   1.614   0.134   2.378  0.3875  0.7510  0.4211
  343SOL    HW2 1029   1.726   0.173   2.265  0.8511 -2.1229 -0.1769
  344SOL     OW 1030   1.857   1.579   0.940 -1.0617  0.3419  0.1959
  344SOL    HW1 1031   1.763   1.545   0.931 -1.2971  1.0705 -0.1575
  344SOL    HW2 1032   1.921   1.508   0.909 -1.4832 -0.1952  0.5387
  345SOL     OW 1033   0.226   1.990   2.187 -0.2460  0.2687  0.3030
  345SOL    HW1 1034   0.214   2.060   2.117 -0.7378  0.6417  0.7518
  345SOL    HW2 1035   0.319   1.952   2.181  0.3711  1.6514  0.6865
  346SOL     OW 1036   0.188   1.009   1.436 -0.2482  0.1079 -0.2987
  346SOL    HW1 1037   0.266   1.009   1.498  0.0093 -1.1733 -0.5947
  346SOL    HW2 1038   0.218   1.039   1.345 -0.0373 -0.6213 -0.4748
  347SOL     OW 1039   2.029   2.289   0.683 -0.3052  1.0631 -0.2155
  347SOL    HW1 1040   1.986   2.201   0.667 -0.0031  0.9200 -0.2514
  347SOL    HW2 1041   1.994   2.356   0.617 -0.9971  1.1299  0.2171
  348SOL     OW 1042   1.300   1.165   1.629 -0.1350  0.2908  0.5353
  348SOL    HW1 1043   1.215   1.119   1.655 -0.2952 -0.7538 -1.5988
  348SOL    HW2 1044   1.285   1.264   1.628 -1.5221  0.1083 -0.3090
  349SOL     OW 1045   1.002   0.574   0.461 -0.2810  0.5373  0.4344
  349SOL    HW1 1046   1.081   0.632   0.481  0.0518  0.5866 -0.9331
  349SOL    HW2 1047   0.920   0.614   0.502  0.2489  0.9826  1.0727
  350SOL     OW 1048   0.753   1.400   0.835 -0.0027 -0.3885  0.4040
  350SOL    HW1 1049   0.694   1.477   0.811 -0.9334 -0.9429  0.8605
  350SOL    HW2 1050   0.846   1.434   0.853 -0.4757  0.6714  0.9426
  351SOL     OW 1051   1.551   0.729   1.362 -0.4780  0.0686  0.2991
  351SOL    HW1 1052   1.544   0.829   1.363 -1.3244  0.0368 -0.6718
  351SOL    HW2 1053   1.616   0.702   1.290  0.1295 -0.0722  0.8932
  352SOL     OW 1054   1.790   0.839   2.377 -0.2293  0.2179 -0.6344
  352SOL    HW1 1055   1.874   0.814   2.328 -0.4613 -0.0811 -0.8823
  352SOL    HW2 1056   1.761   0.931   2.348 -0.3002  0.0917 -0.9740
  353SOL     OW 1057   2.368   1.439   0.404  0.4460 -0.1269 -0.3085
  353SOL    HW1 1058   2.429   1.518   0.394  1.5140 -0.6899  1.3949
  353SOL    HW2 1059   2.310   1.452   0.484 -0.6954 -0.2779 -1.0734
  354SOL     OW 1060   2.016   1.497   0.282 -0.3403  0.5316  0.0787
  354SOL    HW1 1061   1.929   1.476   0.238  0.8524 -0.8471 -1.7938
  354SOL    HW2 1062   2.021   1.451   0.370 -0.8925 -0.7553 -0.5256
  355SOL     OW 1063   0.727   0.161   0.491  0.6808  0.6011 -0.3595
  355SOL    HW1 1064   0.814   0.112   0.498  1.5560  2.1209 -0.3128
  355SOL    HW2 1065   0.664   0.107   0.434  2.4682  0.5704 -2.4522
  356SOL     OW 1066   2.261   1.105   1.811 -0.3037  0.4200 -0.6139
  356SOL    HW1 1067   2.286   1.202   1.810 -0.7946  0.5666  0.4055
  356SOL    HW2 1068   2.193   1.088   1.883 -1.4631 -0.3719 -1.8267
  357SOL     OW 1069   1.369   0.360   0.427 -0.3124  0.1654 -0.2642
  357SOL    HW1 1070   1.352   0.456   0.403 -0.3541  0.2081 -0.0656
  357SOL    HW2 1071   1.419   0.316   0.353 -0.2567  0.3525 -0.3395
  358SOL     OW 1072   1.767   1.762   0.111  0.2083 -0.3075  0.4617
  358SOL    HW1 1073   1.739   1.851   0.073 -2.7279 -1.4136 -0.2741
  358SOL    HW2 1074   1.746   1.759   0.208 -0.6225 -0.4985  0.2853
  359SOL     OW 1075   0.882   2.203   1.916  0.6127  0.9728 -0.2616
  359SOL    HW1 1076   0.879   2.274   1.845  0.6948  1.3603  0.1144
  359SOL    HW2 1077   0.899   2.114   1.874 -0.3957  1.0387 -0.8260
  360SOL     OW 1078   2.430   1.874   1.921  0.1954  0.5474 -0.1450
  360SOL    HW1 1079   2.367   1.859   1.845 -0.2779  0.1222  0.3162
  360SOL    HW2 1080   2.394   1.829   2.003  0.5476  1.2444  0.4062
  361SOL     OW 1081   1.120   0.697   2.295  0.0712 -0.3113 -0.1107
  361SOL    HW1 1082   1.208   0.734   2.267 -0.2174  0.3285 -0.1833
  361SOL    HW2 1083   1.127   0.597   2.303  0.7293 -0.2903 -0.3570
  362SOL     OW 1084   0.025   2.135   0.418  0.3792  0.0989 -0.5896
  362SOL    HW1 1085   0.060   2.222   0.451 -2.0595  0.4705  1.3149
  362SOL    HW2 1086   0.011   2.072   0.495  1.2757 -1.7002 -1.8170
  363SOL     OW 1087   0.699   1.269   1.690  0.3268  0.3638  0.0000
  363SOL    HW1 1088   0.742   1.265   1.599  0.4093 -1.7690  0.1009
  363SOL    HW2 1089   0.601   1.285   1.680  0.2771 -0.2383 -0.4790
  364SOL     OW 1090   0.919   2.387   2.309 -0.3231 -0.4532 -0.6269
  364SOL    HW1 1091   0.990   2.429   2.366  0.6321 -1.0506 -1.3428
  364SOL    HW2 1092   0.923   2.426   2.217 -1.7555  0.3926 -0.3745
  365SOL     OW 1093   0.491   0.775   0.036  0.2333  0.0479 -0.1466
  365SOL    HW1 1094   0.543   0.763   0.121  1.2837  1.8063 -0.4834
  365SOL    HW2 1095   0.553   0.762  -0.042 -0.0292  1.2649 -0.5723
  366SOL     OW 1096   1.622   1.859   2.137  0.1795 -0.1946 -0.8726
  366SOL    HW1 1097   1.677   1.828   2.059  0.1038  2.3821 -2.0367
  366SOL    HW2 1098   1.529   1.823   2.128  0.9968 -2.8158 -0.0102
  367SOL     OW 1099   1.158   0.215   2.144 -0.5581 -0.2939  0.5750
  367SOL    HW1 1100   1.076   0.164   2.121  0.0960 -1.0745 -0.1256
  367SOL    HW2 1101   1.233   0.151   2.163  0.1300  0.3914  0.2415
  368SOL     OW 1102   2.114   0.634   1.769  0.5850 -0.3515  0.2834
  368SOL    HW1 1103   2.163   0.670   1.690  1.2786 -0.4293  0.6685
  368SOL    HW2 1104   2.111   0.534   1.763 -1.9068 -0.2784 -1.1234
  369SOL     OW 1105   2.370   0.843   0.233 -0.0849  0.4892 -0.1059
  369SOL    HW1 1106   2.306   0.777   0.193 -0.0993 -0.0352  0.7488
  369SOL    HW2 1107   2.422   0.887   0.161  1.1605 -1.7048 -0.6352
  370SOL     OW 1108   2.115   1.715   1.995 -0.1937  0.5162 -0.4107
  370SOL    HW1 1109   2.202   1.701   2.044 -0.6215 -1.3574 -0.1080
  370SOL    HW2 1110   2.040   1.678   2.050 -0.9656  0.4595 -1.4789
  371SOL     OW 1111   1.983   2.076   2.327  0.0488 -0.1550 -0.2456
  371SOL    HW1 1112   2.007   1.981   2.344  1.5705  0.0368 -1.1049
  371SOL    HW2 1113   1.889   2.082   2.294 -0.0310 -1.3641 -0.2648
  372SOL     OW 1114   0.612   1.851   1.957 -0.3769  0.0936  1.0063
  372SOL    HW1 1115   0.559   1.912   1.898  0.2233  0.3692  0.7355
  372SOL    HW2 1116   0.673   1.906   2.015  0.1443 -0.2419  0.7849
  373SOL     OW 1117   0.581   1.572   0.750 -0.2328 -0.2704  0.0406
  373SOL    HW1 1118   0.509   1.535   0.809  1.1654 -0.1966  1.8368
  373SOL    HW2 1119   0.557   1.665   0.723 -0.2992  0.1700  1.5649
  374SOL     OW 1120   2.182   0.601   1.252  0.4301 -0.2630  0.3664
  374SOL    HW1 1121   2.241   0.677   1.223 -2.4848  2.2485  0.5087
  374SOL    HW2 1122   2.146   0.555   1.171  0.9007 -0.4315  0.2486
  375SOL     OW 1123   0.101   0.153   0.283  0.5774 -0.3619  0.8058
  375SOL    HW1 1124   0.111   0.221   0.211  3.2875 -2.0363 -0.5414
  375SOL    HW2 1125   0.101   0.199   0.372  0.1945  1.5098 -0.1097
  376SOL     OW 1126   1.743   0.977   1.004 -0.4950  0.0234  0.1149
  376SOL    HW1 1127   1.762   1.043   1.077  0.9762  1.2088 -1.2569
  376SOL    HW2 1128   1.692   1.022   0.931  1.5148  0.0668 -1.3678
  377SOL     OW 1129   1.633   0.273   0.321 -0.0810  0.0939 -0.3036
  377SOL    HW1 1130   1.703   0.302   0.386  0.2321 -1.1196 -0.0811
  377SOL    HW2 1131   1.613   0.348   0.258  1.8253  0.2916 -0.7192
  378SOL     OW 1132   1.915   1.050   0.775  0.0327  0.1347 -0.1509
  378SOL    HW1 1133   1.816   1.032   0.770  0.2138 -0.8203 -0.4774
  378SOL    HW2 1134   1.964   0.981   0.722  0.8606  0.8154 -0.2800
  379SOL     OW 1135   2.412   2.177   1.034 -0.6815  0.1222 -0.2598
  379SOL    HW1 1136   2.319   2.202   1.062 -0.5697 -0.3077  0.5405
  379SOL    HW2 1137   2.434   2.085   1.069  0.0835  0.2691 -0.3284
  380SOL     OW 1138   1.964   1.820   2.416 -0.0322  0.0872 -0.1265
  380SOL    HW1 1139   1.879   1.827   2.469  0.2206  1.4713  0.1351
  380SOL    HW2 1140   2.038   1.790   2.476 -0.0610  0.2163 -0.0231
  381SOL     OW 1141   1.703   0.334   1.108  0.3108  0.3870  0.2047
  381SOL    HW1 1142   1.756   0.416   1.131  3.9385 -1.3151 -1.2445
  381SOL    HW2 1143   1.664   0.295   1.191  0.5020  2.2726  1.2282
  382SOL     OW 1144   0.831   0.667   1.860  0.1029 -0.0937 -0.1004
  382SOL    HW1 1145   0.861   0.575   1.835 -0.9689 -0.2653 -0.8384
  382SOL    HW2 1146   0.865   0.690   1.951  0.3491 -1.2418  0.1152
  383SOL     OW 1147   1.461   1.284   0.828 -0.5418 -0.1469 -0.3740
  383SOL    HW1 1148   1.511   1.364   0.862 -0.4678 -0.5319  0.4279
  383SOL    HW2 1149   1.376   1.315   0.785  0.4949  0.5387 -2.0269
  384SOL     OW 1150   1.942   1.677   1.718  0.4883  0.5509  0.1209
  384SOL    HW1 1151   2.017   1.622   1.756  0.3927 -0.0170 -0.4788
  384SOL    HW2 1152   1.873   1.615   1.678  1.3248  1.1184 -2.3669
  385SOL     OW 1153   2.035   2.385   1.168 -0.3096  0.0710  0.3821
  385SOL    HW1 1154   1.967   2.360   1.237  0.0261  0.7018  0.9580
  385SOL    HW2 1155   2.016   2.478   1.136 -0.9202 -0.4941 -0.9515
  386SOL     OW 1156   0.764   0.959   1.493  0.1194  0.8210  0.3301
  386SOL    HW1 1157   0.696   0.938   1.564 -0.6788  0.5516 -0.5005
  386SOL    HW2 1158   0.737   1.042   1.445 -0.1939  0.1449 -0.6920
  387SOL     OW 1159   1.381   2.150   0.978 -0.0969 -0.0408  0.0323
  387SOL    HW1 1160   1.446   2.220   0.948  0.0933  0.2421  1.0724
  387SOL    HW2 1161   1.316   2.130   0.904  1.7960 -1.1096 -1.4270
  388SOL     OW 1162   1.988   1.335   0.844  0.2233 -0.2984 -0.4811
  388SOL    HW1 1163   2.019   1.304   0.935 -0.9650 -0.2841 -0.0448
  388SOL    HW2 1164   1.962   1.255   0.790 -4.7905 -0.2757  1.3560
  389SOL     OW 1165   0.336   1.675   1.101 -0.3024  0.0465 -0.0028
  389SOL    HW1 1166   0.351   1.756   1.158 -2.3533  0.1519  0.4645
  389SOL    HW2 1167   0.284   1.608   1.153 -0.3859 -0.7326 -1.0696
  390SOL     OW 1168   0.187   2.220   2.030  0.0976  0.2809 -0.0745
  390SOL    HW1 1169   0.122   2.194   1.959 -0.0488 -1.2245  0.5685
  390SOL    HW2 1170   0.191   2.319   2.037 -0.3632  0.4394 -1.7291
  391SOL     OW 1171   1.823   2.270   2.020  0.0171  0.6665  0.0867
  391SOL    HW1 1172   1.875   2.354   2.037 -0.0192  0.6796  0.1326
  391SOL    HW2 1173   1.886   2.193   2.014  0.1908  0.8900 -1.3517
  392SOL     OW 1174   2.329   0.112   0.841  0.3179 -0.3634 -0.1414
  392SOL    HW1 1175   2.269   0.040   0.877  1.0522 -1.4256 -0.9699
  392SOL    HW2 1176   2.411   0.070   0.803  0.9685  0.9687 -0.2582
  393SOL     OW 1177   1.728   0.902   1.853  0.3845  0.1345  0.2211
  393SOL    HW1 1178   1.648   0.842   1.846 -0.1007  0.5868  1.5944
  393SOL    HW2 1179   1.797   0.874   1.786 -0.6391 -0.6966 -0.5114
  394SOL     OW 1180   1.937   1.675   2.200  0.2363  0.1365 -0.2099
  394SOL    HW1 1181   1.932   1.737   2.278  0.5294 -0.1033  0.0020
  394SOL    HW2 1182   1.896   1.587   2.225  3.6834 -1.3042  1.0025
  395SOL     OW 1183   1.235   1.013   1.257 -0.0209 -0.1911 -0.1570
  395SOL    HW1 1184   1.238   1.077   1.180 -0.4080 -0.6893 -0.5954
  395SOL    HW2 1185   1.312   1.031   1.318  0.3186  0.1835 -0.6853
  396SOL     OW 1186   1.466   1.757   1.248 -0.4539 -0.6388  0.3054
  396SOL    HW1 1187   1.515   1.670   1.236  0.0520 -0.2371 -0.5961
  396SOL    HW2 1188   1.373   1.748   1.214  0.3253 -0.1353 -2.1888
  397SOL     OW 1189   1.730   1.054   1.483 -0.3159  0.3186  0.1787
  397SOL    HW1 1190   1.752   0.957   1.483 -0.6733  0.2125 -1.2588
  397SOL    HW2 1191   1.777   1.100   1.558  0.3466 -0.8514  0.4881
  398SOL     OW 1192   1.188   0.449   2.282  0.3680 -0.3568  0.6047
  398SOL    HW1 1193   1.280   0.475   2.253 -0.2263  0.6161 -0.4532
  398SOL    HW2 1194   1.158   0.368   2.231 -0.2473  0.7026 -0.7695
  399SOL     OW 1195   1.199   0.570   1.446 -0.3968  0.0221  0.0422
  399SOL    HW1 1196   1.280   0.562   1.505  0.2743  1.3168 -0.6316
  399SOL    HW2 1197   1.221   0.631   1.369 -1.7491 -0.3332 -0.6527
  400SOL     OW 1198   2.379   0.073   1.505 -0.5563 -0.2097  0.1238
  400SOL    HW1 1199   2.419   0.122   1.427  0.7515 -1.5717 -0.0937
  400SOL    HW2 1200   2.373   0.135   1.583  0.4286  0.4995 -0.3381
  401SOL     OW 1201   2.263   0.773   1.031 -0.5059 -0.4411 -0.4405
  401SOL    HW1 1202   2.223   0.865   1.025  0.1785 -0.0305  0.8143
  401SOL    HW2 1203   2.333   0.763   0.959 -0.3069  0.1720 -0.3404
  402SOL     OW 1204   0.704   1.123   0.864  0.0008 -0.0612 -0.1309
  402SOL    HW1 1205   0.665   1.108   0.954 -1.7010  0.5709 -0.7210
  402SOL    HW2 1206   0.741   1.215   0.857  0.5349 -0.2585  0.0502
  403SOL     OW 1207   0.060   1.736   1.295 -0.1144  0.5451 -0.0238
  403SOL    HW1 1208   0.122   1.663   1.266  1.5395  2.1406 -0.7506
  403SOL    HW2 1209   0.006   1.705   1.373 -0.1738 -1.7415 -0.8969
  404SOL     OW 1210   1.311   0.610   0.315 -0.3710  0.3480  0.1665
  404SOL    HW1 1211   1.274   0.670   0.385  1.8781  0.9082  0.9558
  404SOL    HW2 1212   1.238   0.582   0.253 -2.2556  0.5052  2.2201
  405SOL     OW 1213   0.555   1.842   1.568  0.0470  0.7360 -0.6981
  405SOL    HW1 1214   0.541   1.910   1.640 -1.8698 -0.2927 -0.0232
  405SOL    HW2 1215   0.557   1.750   1.608 -0.2847  0.1975 -1.8594
  406SOL     OW 1216   0.674   1.049   0.099  0.5996  0.1270 -0.2358
  406SOL    HW1 1217   0.622   1.047   0.185  0.8978  1.6937  0.0153
  406SOL    HW2 1218   0.763   1.007   0.113  0.6228  0.3185  0.2257
  407SOL     OW 1219   2.456   0.844   2.288 -0.0212  0.0165  0.2966
  407SOL    HW1 1220   2.461   0.749   2.318 -1.3047  0.4275  1.9592
  407SOL    HW2 1221   2.440   0.846   2.189 -1.4625 -1.5670  0.4296
  408SOL     OW 1222   1.836   0.461   1.454  0.4430  0.0949  0.0134
  408SOL    HW1 1223   1.858   0.464   1.356  2.4520  0.4859  0.4178
  408SOL    HW2 1224   1.737   0.457   1.466 -0.1436  3.7987 -1.9945
  409SOL     OW 1225   2.191   0.621   0.188 -0.0743 -0.4347  0.2640
  409SOL    HW1 1226   2.267   0.580   0.137 -1.2286  1.6198 -3.5275
  409SOL    HW2 1227   2.104   0.591   0.148 -1.1192  0.6093  1.6538
  410SOL     OW 1228   0.059   0.007   0.669 -0.2651 -0.1342  0.1290
  410SOL    HW1 1229   0.074  -0.068   0.734  1.3602  0.4966  0.5259
  410SOL    HW2 1230   0.094   0.093   0.708 -2.2812  0.9087 -0.2208
  411SOL     OW 1231   1.822   1.403   1.323 -0.5619 -0.0966 -0.5595
  411SOL    HW1 1232   1.862   1.476   1.268  0.3194 -0.3771 -0.3044
  411SOL    HW2 1233   1.830   1.425   1.420  3.2381 -2.1731 -0.2243
  412SOL     OW 1234   2.196   1.480   0.615  0.4974  0.0656 -0.2729
  412SOL    HW1 1235   2.140   1.426   0.677  0.0704  1.1818  0.3555
  412SOL    HW2 1236   2.215   1.569   0.657  2.6834 -0.2474 -0.5028
  413SOL     OW 1237   0.170   1.286   2.360 -0.5425 -0.4836 -0.3220
  413SOL    HW1 1238   0.231   1.210   2.381 -0.1706 -0.4367 -1.1783
  413SOL    HW2 1239   0.126   1.318   2.444 -1.2632 -2.1045 -0.0473
  414SOL     OW 1240   0.094   0.864   1.060  0.3344 -0.0878 -0.0832
  414SOL    HW1 1241   0.053   0.854   0.969  0.3290 -1.6095  0.0616
  414SOL    HW2 1242   0.030   0.912   1.120  0.0804  0.3623 -0.6953
  415SOL     OW 1243   0.327   2.311   0.577 -0.2043  0.5034 -0.2119
  415SOL    HW1 1244   0.403   2.290   0.516  0.6438  0.0103  0.9694
  415SOL    HW2 1245   0.253   2.354   0.525  0.7404  0.6945 -1.4473
  416SOL     OW 1246   2.303   0.237   0.294 -0.3586  0.2135 -0.1655
  416SOL    HW1 1247   2.354   0.172   0.350  2.7638  0.3165 -2.6239
  416SOL    HW2 1248   2.209   0.204   0.282  0.3358 -2.3877  0.8996
  417SOL     OW 1249   0.484   0.173   1.095  0.2513  0.4336 -0.3371
  417SOL    HW1 1250   0.533   0.226   1.165  1.4318  0.6989 -1.3186
  417SOL    HW2 1251   0.550   0.119   1.042 -0.6336  0.0731 -1.1060
  418SOL     OW 1252   1.574   2.389   2.049 -0.1413 -0.5870 -0.5860
  418SOL    HW1 1253   1.542   2.294   2.046  2.4527 -1.5572 -0.1819
  418SOL    HW2 1254   1.666   2.394   2.011 -0.1495  1.7647 -0.4227
  419SOL     OW 1255   1.865   0.256   0.890  0.1380 -0.5620 -0.0298
  419SOL    HW1 1256   1.812   0.199   0.827 -0.4507 -2.0932  1.7658
  419SOL    HW2 1257   1.813   0.269   0.974  0.5198  2.1973 -0.1533
  420SOL     OW 1258   0.220   0.760   0.574  0.1875  0.1922  0.1338
  420SOL    HW1 1259   0.208   0.721   0.665  0.1474 -0.0245  0.0380
  420SOL    HW2 1260   0.208   0.688   0.506  0.2867  0.3388 -0.0391
  421SOL     OW 1261   1.497   2.262   0.735  0.6958 -0.4701 -0.0544
  421SOL    HW1 1262   1.504   2.318   0.652  0.2598 -0.4331 -0.0690
  421SOL    HW2 1263   1.548   2.305   0.809  0.7422 -0.2894 -0.1898
  422SOL     OW 1264   0.437   1.379   1.560 -0.0700  0.1173 -0.0756
  422SOL    HW1 1265   0.344   1.370   1.595  0.3688 -1.4921  0.7805
  422SOL    HW2 1266   0.441   1.348   1.465 -0.1593 -1.1627  0.3254
  423SOL     OW 1267   1.830   0.388   0.527 -0.3552  0.5735 -0.1407
  423SOL    HW1 1268   1.924   0.391   0.562 -0.0737  2.0718 -0.9590
  423SOL    HW2 1269   1.793   0.480   0.522 -1.8375  0.0089  0.0255
  424SOL     OW 1270   0.768   0.467   1.206  0.4253  0.5125 -0.1326
  424SOL    HW1 1271   0.727   0.557   1.222 -1.5882 -0.5432  0.9857
  424SOL    HW2 1272   0.863   0.468   1.238 -0.0494  1.8166  1.3842
  425SOL     OW 1273   1.751   2.093   1.026  0.1854 -0.1629 -0.1213
  425SOL    HW1 1274   1.783   2.087   0.931  0.2984 -2.3731  0.0114
  425SOL    HW2 1275   1.673   2.033   1.039 -1.1000  1.5988  0.7529
  426SOL     OW 1276   0.137   1.246   0.906  0.5029 -0.0159 -0.3659
  426SOL    HW1 1277   0.043   1.220   0.926  1.4450 -2.1690  1.8064
  426SOL    HW2 1278   0.166   1.206   0.819 -0.0595 -0.8197 -0.1907
  427SOL     OW 1279   1.401   1.270   1.262  0.1143 -0.1661 -0.3071
  427SOL    HW1 1280   1.443   1.206   1.326  0.8205  0.3546 -0.2341
  427SOL    HW2 1281   1.364   1.220   1.184 -1.3196 -0.8751  0.7841
  428SOL     OW 1282   0.145   1.490   0.790  0.0672  0.7567  0.0869
  428SOL    HW1 1283   0.141   1.419   0.860  1.8363  0.6587  0.1395
  428SOL    HW2 1284   0.133   1.449   0.700 -0.4303  0.6192  0.2150
  429SOL     OW 1285   0.225   1.535   2.213  0.0531  0.1026  0.6353
  429SOL    HW1 1286   0.275   1.498   2.135 -0.9717  0.9873 -0.4728
  429SOL    HW2 1287   0.177   1.461   2.260  0.4257 -0.3994  0.2382
  430SOL     OW 1288   1.763   0.915   0.131 -0.2621  0.2208  0.0406
  430SOL    HW1 1289   1.680   0.871   0.165 -1.1319 -0.1435 -2.3856
  430SOL    HW2 1290   1.777   0.892   0.035  2.7980  0.1097  0.4096
  431SOL     OW 1291   1.176   2.118   2.269  0.1610 -0.1783  0.4641
  431SOL    HW1 1292   1.102   2.057   2.298 -0.4149  0.1671 -0.2247
  431SOL    HW2 1293   1.248   2.065   2.226  0.0662 -0.4675  0.6583
  432SOL     OW 1294   2.134   1.003   1.000 -0.0067  0.0268  0.5319
  432SOL    HW1 1295   2.133   1.089   1.052 -0.6163  0.8639 -0.8172
  432SOL    HW2 1296   2.049   0.995   0.948  0.9969 -0.2910 -1.1339
  433SOL     OW 1297   2.346   1.237   0.239  0.1596 -0.1544 -0.0045
  433SOL    HW1 1298   2.333   1.157   0.298 -0.0182  0.1807  0.4099
  433SOL    HW2 1299   2.363   1.318   0.295 -1.2619  0.4206 -0.3494
  434SOL     OW 1300   1.769   1.237   0.393 -0.2135  0.3388 -0.4279
  434SOL    HW1 1301   1.862   1.210   0.369 -0.6769  0.0193 -1.9865
  434SOL    HW2 1302   1.765   1.263   0.490  1.1889 -0.9281 -0.0039
  435SOL     OW 1303   0.211   1.975   0.306  0.3622 -0.8405 -0.4548
  435SOL    HW1 1304   0.141   2.043   0.329 -0.7757 -2.2715  0.5337
  435SOL    HW2 1305   0.280   2.017   0.247 -0.5439  1.0198 -0.2801
  436SOL     OW 1306   1.285   1.447   1.901 -0.3113  0.0519 -0.1528
  436SOL    HW1 1307   1.228   1.424   1.822 -1.4395 -0.3621  0.7621
  436SOL    HW2 1308   1.242   1.521   1.953  0.5992  0.5664 -0.0946
  437SOL     OW 1309   2.156   2.394   0.903  0.0572  0.3628 -0.1286
  437SOL    HW1 1310   2.101   2.361   0.980  0.8431  1.6370  1.0185
  437SOL    HW2 1311   2.124   2.350   0.819 -0.9528 -0.9204  0.8713
  438SOL     OW 1312   2.068   2.303   1.652  0.3929 -0.0398  0.3565
  438SOL    HW1 1313   2.030   2.233   1.592  0.5044  0.8177 -0.7498
  438SOL    HW2 1314   2.105   2.378   1.597  1.0429  0.5034  1.4883
  439SOL     OW 1315   0.142   1.671   0.038 -0.0947  0.1755 -0.2673
  439SOL    HW1 1316   0.099   1.691  -0.050 -0.0326 -0.8820 -0.5627
  439SOL    HW2 1317   0.074   1.674   0.110 -0.3794 -0.0535 -0.5227
  440SOL     OW 1318   1.986   0.774   2.207  0.4687 -0.4673  0.0509
  440SOL    HW1 1319   2.018   0.806   2.117  1.0749 -1.9576 -0.3011
  440SOL    HW2 1320   2.040   0.694   2.234 -1.6316 -1.8452  0.3918
  441SOL     OW 1321   0.484   2.192   2.128  0.2352 -0.0211 -0.1045
  441SOL    HW1 1322   0.389   2.222   2.135  0.5130  0.8868 -0.1492
  441SOL    HW2 1323   0.495   2.105   2.178 -0.4230  0.3194  0.6620
  442SOL     OW 1324   0.925   2.153   0.198 -0.4736  0.0777  0.3705
  442SOL    HW1 1325   0.896   2.158   0.102 -0.2337  2.8531  0.3631
  442SOL    HW2 1326   1.011   2.203   0.210 -0.6033 -0.0369  2.0682
  443SOL     OW 1327   2.251   1.482   1.025  0.6274  0.1692 -0.2752
  443SOL    HW1 1328   2.269   1.534   0.941  4.1216  0.5433  0.5513
  443SOL    HW2 1329   2.230   1.546   1.099 -1.5376 -0.1117 -0.5783
  444SOL     OW 1330   1.691   0.654   2.118 -0.4527 -0.4291  0.1270
  444SOL    HW1 1331   1.639   0.664   2.033 -1.2780 -2.4778  0.3281
  444SOL    HW2 1332   1.727   0.743   2.146 -0.5932  0.3852 -2.0695
  445SOL     OW 1333   2.111   0.036   1.505 -0.5115 -0.2911  0.0186
  445SOL    HW1 1334   2.208   0.021   1.522 -0.1822  0.7162 -0.8607
  445SOL    HW2 1335   2.099   0.120   1.452 -1.7959 -0.8958 -0.6984
  446SOL     OW 1336   2.171   2.003   0.146 -0.3626 -0.2238  0.2621
  446SOL    HW1 1337   2.128   1.918   0.176 -1.0454  0.2219  0.5614
  446SOL    HW2 1338   2.220   1.987   0.061  0.4387 -1.1771  0.8810
  447SOL     OW 1339   2.090   0.137   0.493  0.1748  0.9375  0.1514
  447SOL    HW1 1340   2.019   0.073   0.523  0.9556  0.0556  0.1816
  447SOL    HW2 1341   2.090   0.217   0.553 -1.5975  1.5565 -0.5999
  448SOL     OW 1342   2.069   0.873   0.621  0.0504  0.8262 -0.0085
  448SOL    HW1 1343   2.070   0.826   0.533 -0.1697  0.6169  0.1012
  448SOL    HW2 1344   2.112   0.816   0.691 -2.0553 -0.1279  0.5820
  449SOL     OW 1345   0.516   0.780   0.597  0.1244  0.2296  0.3777
  449SOL    HW1 1346   0.537   0.821   0.685 -0.6160  0.8043  0.2948
  449SOL    HW2 1347   0.423   0.805   0.570  1.0738  1.9109 -1.5929
  450SOL     OW 1348   0.837   1.972   1.541 -0.7043 -0.1380 -0.3287
  450SOL    HW1 1349   0.752   2.012   1.573 -0.3827  0.1657  0.1495
  450SOL    HW2 1350   0.869   2.021   1.460 -1.2267 -0.5555 -0.7955
  451SOL     OW 1351   0.510   2.225   0.966 -0.1290  0.0930  0.3269
  451SOL    HW1 1352   0.434   2.288   0.985 -0.4034 -0.4322  1.0211
  451SOL    HW2 1353   0.596   2.276   0.971 -0.3909  0.5611  0.1853
  452SOL     OW 1354   0.246   0.023   0.063 -0.2629 -0.4500 -0.3964
  452SOL    HW1 1355   0.226   0.071   0.148 -2.0667 -3.8527  1.3196
  452SOL    HW2 1356   0.342  -0.005   0.062 -0.2944 -0.6546  0.7342
  453SOL     OW 1357   1.324   1.718   1.730 -0.2701  0.2119  0.0229
  453SOL    HW1 1358   1.421   1.729   1.710 -1.1068  3.2915 -3.4145
  453SOL    HW2 1359   1.279   1.674   1.652 -1.8582 -0.0675  1.0530
  454SOL     OW 1360   0.316   1.058   2.014  0.2582 -0.5431  0.1191
  454SOL    HW1 1361   0.334   0.969   1.974 -0.1704  0.1711 -1.7438
  454SOL    HW2 1362   0.401   1.094   2.054  1.6943  0.1832 -3.2500
  455SOL     OW 1363   0.168   1.392   0.534  0.4393  0.1239  0.2634
  455SOL    HW1 1364   0.244   1.436   0.487  0.9141 -1.0479 -0.0947
  455SOL    HW2 1365   0.082   1.417   0.489  0.4538  2.2957  1.2970
  456SOL     OW 1366   1.887   1.180   1.669  0.2994  0.1335  0.1333
  456SOL    HW1 1367   1.889   1.176   1.769 -0.7152 -1.5117  0.1193
  456SOL    HW2 1368   1.959   1.121   1.632 -1.5044 -2.0719 -0.0678
  457SOL     OW 1369   0.227   0.277   2.067 -0.4294  0.0525 -0.6885
  457SOL    HW1 1370   0.204   0.265   2.163 -1.3517  0.4313 -0.8452
  457SOL    HW2 1371   0.310   0.332   2.059  0.4159 -1.1073 -0.0996
  458SOL     OW 1372   1.726   2.499   0.292 -0.6586 -0.3213 -0.1766
  458SOL    HW1 1373   1.720   2.445   0.208 -0.1523 -0.1272 -0.3384
  458SOL    HW2 1374   1.700   2.593   0.274 -2.6484 -0.7269  0.3416
  459SOL     OW 1375   2.439   0.560   2.365  0.9646  0.4096 -0.0985
  459SOL    HW1 1376   2.527   0.543   2.320  1.5892  1.7126  0.5850
  459SOL    HW2 1377   2.440   0.521   2.456  0.8065  0.3656 -0.1151
  460SOL     OW 1378   1.913   0.029   1.806  0.0287  0.0130 -0.2659
  460SOL    HW1 1379   1.974   0.108   1.808 -0.5478  0.4968 -1.1150
  460SOL    HW2 1380   1.943  -0.035   1.735 -0.0999 -0.0276 -0.2846
  461SOL     OW 1381   0.199   0.532   2.302 -0.5621 -0.6245 -0.0304
  461SOL    HW1 1382   0.248   0.540   2.389  0.1008 -0.1580 -0.4328
  461SOL    HW2 1383   0.256   0.571   2.229 -1.9920  0.9554 -0.3554
  462SOL     OW 1384   2.112   1.211   1.179  0.0207 -0.2378  0.7058
  462SOL    HW1 1385   2.166   1.249   1.254  1.1369 -1.8291  0.7554
  462SOL    HW2 1386   2.018   1.195   1.210  0.3627 -0.5021  1.6513
  463SOL     OW 1387   0.946   0.757   1.258 -0.1181 -0.1592 -0.0067
  463SOL    HW1 1388   0.963   0.843   1.210 -1.2524 -0.2173 -0.5477
  463SOL    HW2 1389   0.992   0.683   1.209  0.2204  0.0275  0.0232
  464SOL     OW 1390   2.332   2.494   2.447 -0.0140 -0.7491  0.0268
  464SOL    HW1 1391   2.344   2.438   2.364 -0.8834 -1.4059  0.3249
  464SOL    HW2 1392   2.376   2.449   2.524  0.3334 -0.4036  0.0339
  465SOL     OW 1393   0.862   1.705   1.542 -0.0129 -0.3914  0.3642
  465SOL    HW1 1394   0.790   1.671   1.602  0.2966 -0.2616  0.8101
  465SOL    HW2 1395   0.859   1.805   1.539 -0.1533 -0.4033  0.0034
  466SOL     OW 1396   2.220   2.136   0.377  0.2057  0.1865 -0.1153
  466SOL    HW1 1397   2.317   2.156   0.393  0.3766 -0.2826 -0.5379
  466SOL    HW2 1398   2.209   2.092   0.288 -0.2838 -0.5706  0.3027
  467SOL     OW 1399   0.587   1.318   0.068  0.2957 -0.0971 -0.1190
  467SOL    HW1 1400   0.669   1.362   0.029 -0.9096  0.4647 -2.2017
  467SOL    HW2 1401   0.591   1.220   0.051 -0.0399  0.0951 -1.4020
  468SOL     OW 1402   0.939   1.141   2.232 -0.1717  0.0650 -0.1090
  468SOL    HW1 1403   1.036   1.131   2.211 -0.3865 -0.5250 -0.8752
  468SOL    HW2 1404   0.908   1.233   2.207  0.2000  0.2599  0.1605
  469SOL     OW 1405   1.634   2.090   1.720 -0.2558 -0.3819  0.1959
  469SOL    HW1 1406   1.729   2.059   1.720 -0.0972  0.0878  0.8120
  469SOL    HW2 1407   1.628   2.178   1.767 -0.7500  0.3445 -1.1739
  470SOL     OW 1408   1.879   1.951   1.690 -0.4911  0.3645 -0.4101
  470SOL    HW1 1409   1.901   2.009   1.611 -0.4854  2.4620  1.0718
  470SOL    HW2 1410   1.903   1.856   1.668  0.0507  0.9555 -2.7054
  471SOL     OW 1411   0.359   1.123   1.740  0.3274  0.0994 -0.2210
  471SOL    HW1 1412   0.328   1.217   1.721  0.3986  0.1785  0.0414
  471SOL    HW2 1413   0.334   1.099   1.834  0.8657  0.0806 -0.0820
  472SOL     OW 1414   0.124   0.454   1.616 -0.4980 -0.0763 -0.5243
  472SOL    HW1 1415   0.047   0.390   1.623  1.0406 -1.7939  2.1964
  472SOL    HW2 1416   0.210   0.404   1.618  0.7674  1.9638 -0.6081
  473SOL     OW 1417   2.353   1.232   0.966  0.0213  0.2722  0.2937
  473SOL    HW1 1418   2.299   1.314   0.988  0.4139  0.2578  1.3536
  473SOL    HW2 1419   2.294   1.166   0.919 -0.2705  1.1897 -0.6896
  474SOL     OW 1420   1.357   2.475   2.215 -0.0135 -0.7489 -0.8716
  474SOL    HW1 1421   1.290   2.418   2.167 -0.3483 -0.2607 -0.9931
  474SOL    HW2 1422   1.449   2.445   2.191 -0.1842 -0.9372 -1.3084
  475SOL     OW 1423   0.348   0.666   2.144  0.6500 -0.1185  0.1275
  475SOL    HW1 1424   0.402   0.713   2.215 -0.9647 -0.2071  1.4748
  475SOL    HW2 1425   0.352   0.719   2.060  3.3738 -0.4708 -0.0674
  476SOL     OW 1426   1.047   1.470   2.462  0.1912 -0.2743 -0.5639
  476SOL    HW1 1427   1.119   1.489   2.395  1.4306 -0.2839  0.7241
  476SOL    HW2 1428   1.075   1.503   2.552 -2.1696  1.2820 -0.3290
  477SOL     OW 1429   1.149   2.322   2.079 -0.1883 -0.5165 -0.3151
  477SOL    HW1 1430   1.147   2.250   2.149 -0.6294 -0.9121 -0.7310
  477SOL    HW2 1431   1.156   2.280   1.989 -0.9786 -0.0562 -0.5957
  478SOL     OW 1432   2.156   1.533   1.811 -0.2123 -0.6417  0.2489
  478SOL    HW1 1433   2.135   1.592   1.889  2.1509  0.1296  0.3997
  478SOL    HW2 1434   2.243   1.486   1.827 -0.2963 -1.4248 -1.3813
  479SOL     OW 1435   0.397   1.502   0.911  0.7283 -0.9416 -0.4811
  479SOL    HW1 1436   0.308   1.464   0.884 -0.5126  1.2789  0.2839
  479SOL    HW2 1437   0.384   1.577   0.975  3.2080 -0.7474 -0.0923
  480SOL     OW 1438   0.273   1.069   1.091  0.0806 -0.1422  0.1518
  480SOL    HW1 1439   0.227   0.983   1.072 -2.5160  1.1025  0.4280
  480SOL    HW2 1440   0.228   1.143   1.041  1.5552  1.2429  0.7774
  481SOL     OW 1441   0.514   2.265   1.797  0.2517  0.0363 -0.6798
  481SOL    HW1 1442   0.584   2.306   1.855  2.0291 -0.1055 -2.6108
  481SOL    HW2 1443   0.444   2.333   1.775  0.5244  0.5953  0.1385
  482SOL     OW 1444   0.866   0.887   0.210  0.2346  1.1429 -0.0219
  482SOL    HW1 1445   0.877   0.823   0.134 -0.0871  1.9345 -0.7422
  482SOL    HW2 1446   0.954   0.930   0.232  0.3356  0.8806  0.0945
  483SOL     OW 1447   2.268   0.267   2.378 -0.0370 -0.1035  0.4988
  483SOL    HW1 1448   2.328   0.189   2.399  0.0874  0.1035  0.9375
  483SOL    HW2 1449   2.280   0.338   2.448 -0.2311  0.2650  0.1648
  484SOL     OW 1450   1.374   0.867   2.206 -0.2141 -0.4431 -0.3603
  484SOL    HW1 1451   1.449   0.886   2.142 -0.9303  1.8929 -0.5705
  484SOL    HW2 1452   1.412   0.830   2.291  1.2436  1.1005 -0.2978
  485SOL     OW 1453   0.758   2.318   1.006 -0.2118  0.1037 -0.0879
  485SOL    HW1 1454   0.813   2.235   0.996  0.0136  0.1770  0.5169
  485SOL    HW2 1455   0.816   2.399   1.000 -0.4986  0.2425 -1.1622
  486SOL     OW 1456   1.782   2.037   0.708 -0.4701  0.1746  0.6450
  486SOL    HW1 1457   1.690   2.007   0.684 -0.1945 -0.1915  0.0028
  486SOL    HW2 1458   1.835   2.050   0.624  1.2979 -3.5296  0.9596
  487SOL     OW 1459   1.952   2.170   0.148  0.0261 -0.1385  0.3784
  487SOL    HW1 1460   2.032   2.110   0.148 -0.2346 -0.5799  2.3098
  487SOL    HW2 1461   1.982   2.265   0.158  0.3533 -0.1965 -0.0369
  488SOL     OW 1462   2.335   2.374   0.259 -0.4102  0.0906 -0.4740
  488SOL    HW1 1463   2.264   2.309   0.286  1.1827 -1.2993  0.6146
  488SOL    HW2 1464   2.358   2.432   0.337  0.6269 -0.4444 -0.3704
  489SOL     OW 1465   1.752   1.794   0.377  0.3967 -0.0681 -0.0100
  489SOL    HW1 1466   1.734   1.891   0.393  0.0104 -0.0450 -0.5459
  489SOL    HW2 1467   1.700   1.739   0.442  0.5925  0.0767  0.2745
  490SOL     OW 1468   1.228   2.264   1.812 -0.3456  0.1979 -0.5347
  490SOL    HW1 1469   1.257   2.171   1.791  1.2573  0.3863  0.6386
  490SOL    HW2 1470   1.286   2.329   1.762 -1.0865  0.5951 -0.9085
  491SOL     OW 1471   2.355   0.024   0.476  0.3079  0.0478 -0.2716
  491SOL    HW1 1472   2.266   0.058   0.507 -0.0764 -2.7391  2.1204
  491SOL    HW2 1473   2.427   0.065   0.532  0.4050  0.9276 -1.0103
  492SOL     OW 1474   1.388   0.299   1.586 -0.1774  0.1529  0.2610
  492SOL    HW1 1475   1.299   0.336   1.612  0.7269  2.3421  0.5134
  492SOL    HW2 1476   1.460   0.361   1.619  1.4084 -1.1769 -0.5613
  493SOL     OW 1477   0.823   1.250   0.228  0.1927  0.0031  0.5932
  493SOL    HW1 1478   0.735   1.220   0.189  0.6668 -1.9814  0.9368
  493SOL    HW2 1479   0.894   1.242   0.159  0.0854  1.9987  0.1911
  494SOL     OW 1480   1.502   2.127   2.008 -0.7928  0.0438 -0.5618
  494SOL    HW1 1481   1.436   2.070   2.058 -1.3138  0.2380 -1.0100
  494SOL    HW2 1482   1.532   2.078   1.926  1.1620 -0.8809  0.6369
  495SOL     OW 1483   1.672   1.290   2.060 -0.0093  0.1209  0.8561
  495SOL    HW1 1484   1.764   1.265   2.031  0.3593  1.5222  0.7546
  495SOL    HW2 1485   1.615   1.306   1.980  0.5579  2.3619  0.8289
  496SOL     OW 1486   0.496   2.226   2.450 -0.2016 -0.2167 -0.1859
  496SOL    HW1 1487   0.532   2.296   2.388 -0.1033 -0.4839 -0.4299
  496SOL    HW2 1488   0.403   2.201   2.421  0.2341 -1.0983 -0.8549
  497SOL     OW 1489   0.244   0.555   1.370 -0.4727  0.3313  0.5829
  497SOL    HW1 1490   0.333   0.592   1.399 -1.0754  0.9330  1.7158
  497SOL    HW2 1491   0.177   0.567   1.443 -1.2466 -1.0504  0.1335
  498SOL     OW 1492   1.492   1.416   0.484  0.3356  0.0132  0.2765
  498SOL    HW1 1493   1.476   1.416   0.385  0.1667 -1.4264  0.2865
  498SOL    HW2 1494   1.582   1.376   0.503  0.5093  0.5882  0.6999
  499SOL     OW 1495   1.576   2.204   1.463 -0.2049  0.1328  0.1623
  499SOL    HW1 1496   1.599   2.187   1.559 -1.4570  0.0682  0.4582
  499SOL    HW2 1497   1.522   2.128   1.427  0.5678 -0.0206 -0.7176
  500SOL     OW 1498   2.245   0.559   2.166 -0.1699  0.1182  0.1508
  500SOL    HW1 1499   2.222   0.466   2.140 -2.2248  0.2192  1.4172
  500SOL    HW2 1500   2.293   0.559   2.253  0.4234  0.2204 -0.1702
  501SOL     OW 1501   0.989   1.775   1.295 -0.1989  0.0388 -0.2621
  501SOL    HW1 1502   0.921   1.840   1.260  0.0585  1.2344  1.3491
  501SOL    HW2 1503   0.962   1.744   1.386  0.1325 -1.4779 -0.6570
  502SOL     OW 1504   2.171   2.243   1.885  0.0501 -0.1382  0.2971
  502SOL    HW1 1505   2.129   2.267   1.797  1.5635 -2.3347 -1.1282
  502SOL    HW2 1506   2.120   2.169   1.928 -0.7376  0.9901  1.3520
  503SOL     OW 1507   0.000   1.912   1.102  0.1005 -0.2170  0.1568
  503SOL    HW1 1508   0.081   1.963   1.072 -1.0000  2.2951  1.1927
  503SOL    HW2 1509   0.027   1.843   1.169  1.1850  3.0749  3.4709
  504SOL     OW 1510   2.379   0.405   0.079  0.0164  0.1830 -0.1137
  504SOL    HW1 1511   2.473   0.374   0.061  0.1340  0.2525  0.3692
  504SOL    HW2 1512   2.348   0.369   0.167  0.4786  2.1089  0.9162
  505SOL     OW 1513   1.903   0.792   1.197 -0.0193 -0.0826  0.1385
  505SOL    HW1 1514   1.848   0.858   1.146  3.2709  2.3481 -0.6214
  505SOL    HW2 1515   1.871   0.787   1.292 -0.9320  1.9655 -0.0142
  506SOL     OW 1516   0.243   0.199   1.009  0.0093 -0.0167 -0.1424
  506SOL    HW1 1517   0.334   0.186   1.049 -0.0153 -1.2646 -0.4774
  506SOL    HW2 1518   0.187   0.254   1.072 -0.0958 -2.0793  1.7027
  507SOL     OW 1519   0.151   1.745   0.780  0.2885 -0.0595 -0.0871
  507SOL    HW1 1520   0.136   1.648   0.800  0.0244  0.0927  0.4769
  507SOL    HW2 1521   0.200   1.754   0.693  0.5111 -0.7023 -0.0313
  508SOL     OW 1522   0.502   1.842   0.046  0.2987 -0.6158  0.1424
  508SOL    HW1 1523   0.581   1.789   0.077 -0.2864  0.1856  3.2606
  508SOL    HW2 1524   0.426   1.780   0.026  0.4217 -1.1416  1.2504
  509SOL     OW 1525   0.111   1.302   0.149  0.1032 -0.0102 -0.5255
  509SOL    HW1 1526   0.038   1.236   0.131 -0.1892  0.6340 -1.7887
  509SOL    HW2 1527   0.083   1.364   0.223 -0.3360 -0.1994 -0.5296
  510SOL     OW 1528   1.683   1.525   1.748 -0.5565  0.1598 -0.0000
  510SOL    HW1 1529   1.634   1.612   1.761 -1.3555  0.0335 -1.8347
  510SOL    HW2 1530   1.623   1.449   1.773 -0.3012  0.0743  0.3726
   2.50000   2.50000   2.50000
